/*--------------------------------*- C++ -*----------------------------------*\
| =========                 |                                                 |
| \\      /  F ield         | OpenFOAM Extend Project: Open source CFD        |
|  \\    /   O peration     | Version:  1.6-ext                               |
|   \\  /    A nd           | Web:      www.extend-project.de                 |
|    \\/     M anipulation  |                                                 |
\*---------------------------------------------------------------------------*/
FoamFile
{
    version     2.0;
    format      ascii;
    class       volScalarField;
    location    "2000";
    object      nut;
}
// * * * * * * * * * * * * * * * * * * * * * * * * * * * * * * * * * * * * * //

dimensions      [0 2 -1 0 0 0 0];

internalField   nonuniform List<scalar> 
12225
(
2.03731e-05
1.92689e-05
1.82911e-05
1.74463e-05
1.67349e-05
1.61516e-05
1.56881e-05
1.53341e-05
1.50782e-05
1.49087e-05
1.48137e-05
1.47814e-05
1.48007e-05
1.48612e-05
1.49536e-05
1.50698e-05
1.5203e-05
1.53832e-05
0.000221584
0.000167823
0.000141581
0.000125941
0.000116241
0.000110183
0.000106457
0.000104259
0.000103073
0.00010255
0.000102454
0.000102619
0.000102933
0.00010332
0.000103731
0.000104135
0.000104515
0.000104818
0.000471586
0.000354384
0.000297903
0.000262901
0.00023877
0.000221035
0.000207363
0.000196426
0.000187416
0.000179823
0.000173312
0.000167654
0.000162692
0.000158314
0.000154434
0.000150989
0.000147921
0.000145227
0.000699089
0.000576267
0.000497807
0.00044425
0.000405307
0.000375584
0.000351977
0.000332603
0.000316269
0.000302192
0.00028984
0.000278847
0.000268956
0.000259985
0.000251806
0.000244327
0.00023749
0.000231342
0.000807194
0.000741276
0.000679453
0.000627231
0.000584187
0.000548671
0.000519037
0.000493945
0.000472378
0.000453578
0.000436976
0.00042215
0.000408781
0.000396628
0.000385514
0.000375308
0.000365924
0.000357405
0.000840964
0.000817172
0.000786669
0.000754318
0.00072293
0.0006938
0.000667329
0.000643478
0.000622028
0.000602705
0.000585235
0.000569372
0.000554903
0.000541647
0.000529457
0.000518217
0.000507844
0.000498385
0.000849491
0.00084273
0.000831866
0.000817866
0.000801928
0.000785099
0.00076814
0.000751542
0.000735595
0.000720448
0.000706164
0.000692748
0.000680176
0.000668409
0.000657401
0.000647108
0.000637495
0.000628638
0.000851152
0.00084886
0.000844795
0.0008389
0.000831414
0.000822712
0.000813191
0.0008032
0.000793016
0.000782851
0.000772853
0.000763123
0.000753728
0.000744707
0.000736083
0.000727867
0.000720068
0.000712799
0.000851562
0.000850632
0.00084907
0.000846696
0.000843455
0.000839394
0.000834624
0.000829289
0.000823535
0.000817501
0.000811303
0.00080504
0.00079879
0.000792614
0.000786558
0.000780659
0.000774949
0.000769538
0.00085166
0.000851134
0.000850448
0.000849507
0.000848238
0.000846599
0.000844585
0.000842215
0.000839526
0.000836566
0.000833389
0.000830046
0.000826585
0.00082305
0.000819479
0.000815905
0.000812361
0.000808931
0.000851676
0.00085124
0.00085079
0.000850294
0.000849718
0.000849035
0.000848222
0.000847268
0.000846168
0.000844928
0.000843556
0.000842066
0.000840476
0.000838801
0.000837059
0.000835268
0.000833446
0.000831644
0.000851675
0.000851252
0.000850847
0.000850452
0.000850057
0.000849651
0.000849224
0.000848768
0.000848275
0.000847741
0.000847162
0.00084654
0.000845874
0.000845169
0.000844426
0.000843651
0.000842853
0.000842054
0.000851671
0.000851248
0.000850847
0.000850466
0.000850103
0.000849754
0.000849415
0.000849084
0.000848756
0.000848429
0.000848101
0.000847769
0.000847432
0.000847089
0.000846739
0.000846383
0.000846023
0.000845672
0.000851668
0.000851243
0.00085084
0.000850459
0.000850097
0.000849754
0.000849428
0.000849116
0.000848818
0.000848533
0.000848258
0.000847993
0.000847736
0.000847487
0.000847244
0.000847008
0.000846779
0.000846568
0.000851666
0.000851239
0.000850834
0.000850451
0.000850088
0.000849743
0.000849416
0.000849105
0.000848809
0.000848527
0.000848258
0.000848001
0.000847756
0.000847522
0.000847298
0.000847083
0.000846879
0.000846697
0.000851665
0.000851236
0.00085083
0.000850445
0.00085008
0.000849734
0.000849405
0.000849092
0.000848794
0.000848511
0.000848241
0.000847983
0.000847738
0.000847503
0.00084728
0.000847066
0.000846864
0.000846685
0.000851664
0.000851235
0.000850828
0.000850442
0.000850075
0.000849728
0.000849397
0.000849083
0.000848784
0.000848499
0.000848227
0.000847968
0.000847721
0.000847485
0.00084726
0.000847045
0.000846842
0.000846662
0.000851664
0.000851234
0.000850827
0.00085044
0.000850073
0.000849725
0.000849394
0.000849079
0.000848779
0.000848493
0.00084822
0.00084796
0.000847712
0.000847475
0.000847249
0.000847033
0.000846829
0.000846647
0.000851664
0.000851234
0.000850827
0.000850441
0.000850074
0.000849725
0.000849394
0.000849079
0.000848778
0.000848492
0.000848219
0.000847958
0.00084771
0.000847472
0.000847245
0.000847028
0.000846823
0.00084664
0.000851664
0.000851235
0.000850828
0.000850443
0.000850076
0.000849728
0.000849397
0.000849081
0.00084878
0.000848493
0.000848218
0.000847955
0.000847702
0.00084746
0.000847228
0.000847005
0.000846792
0.000846601
0.000851665
0.000851237
0.000850831
0.000850445
0.000850078
0.000849728
0.000849392
0.000849069
0.000848756
0.000848453
0.000848156
0.000847866
0.000847581
0.0008473
0.000847022
0.000846747
0.000846477
0.000846224
0.000851666
0.000851238
0.000850829
0.000850434
0.000850046
0.00084966
0.000849268
0.000848866
0.000848449
0.000848013
0.000847557
0.000847079
0.00084658
0.000846061
0.000845522
0.000844965
0.000844396
0.00084383
0.000851664
0.000851217
0.000850752
0.00085024
0.000849652
0.000848967
0.000848171
0.000847255
0.000846221
0.000845073
0.00084382
0.000842474
0.000841049
0.000839558
0.000838014
0.000836431
0.000834823
0.000833221
0.000851612
0.000850941
0.000849964
0.000848574
0.000846716
0.000844387
0.000841622
0.00083848
0.000835027
0.000831335
0.00082747
0.000823492
0.000819452
0.000815393
0.000811349
0.000807351
0.000803423
0.000799617
0.00085105
0.000848587
0.000844383
0.00083849
0.000831196
0.000822878
0.000813907
0.000804595
0.000795187
0.00078586
0.000776739
0.000767907
0.000759414
0.00075129
0.000743545
0.000736181
0.000729195
0.000722626
0.000846488
0.00083359
0.000815517
0.000794765
0.000773224
0.000752099
0.000732046
0.000713357
0.000696114
0.000680287
0.00066579
0.000652515
0.000640346
0.000629174
0.000618896
0.000609419
0.000600665
0.000592611
0.000817057
0.000763886
0.000712109
0.000666834
0.000628502
0.000596309
0.000569184
0.000546145
0.000526391
0.000509292
0.000494353
0.000481188
0.000469495
0.000459033
0.00044961
0.000441073
0.000433299
0.000426223
0.000681008
0.000562753
0.000489348
0.000439438
0.000403423
0.000376339
0.000355272
0.000338421
0.000324629
0.000313125
0.000303371
0.000294986
0.000287691
0.000281277
0.000275586
0.000270498
0.00026592
0.000261799
0.000344402
0.00025864
0.000219264
0.000195378
0.000179506
0.000168453
0.000160512
0.000154692
0.000150377
0.000147165
0.000144777
0.000143016
0.000141737
0.000140828
0.000140209
0.000139813
0.000139591
0.00013952
2.90728e-05
2.76398e-05
2.64051e-05
2.53328e-05
2.43982e-05
2.35828e-05
2.28717e-05
2.22523e-05
2.17135e-05
2.12459e-05
2.08413e-05
2.04924e-05
2.01928e-05
1.9937e-05
1.972e-05
1.95372e-05
1.93846e-05
1.92589e-05
2.71569e-06
7.609e-06
8.67834e-06
9.4104e-06
1.00783e-05
1.07533e-05
1.14328e-05
1.21693e-05
1.295e-05
1.37296e-05
1.45213e-05
1.53211e-05
1.61238e-05
1.69255e-05
1.7724e-05
1.8518e-05
1.9307e-05
2.00908e-05
2.08697e-05
2.16442e-05
2.2415e-05
2.31827e-05
2.39483e-05
2.47126e-05
2.54768e-05
2.6242e-05
2.70095e-05
2.77811e-05
2.85587e-05
2.93445e-05
3.01414e-05
3.09529e-05
3.17835e-05
3.26385e-05
3.3525e-05
3.44516e-05
3.54294e-05
3.64724e-05
3.75984e-05
3.883e-05
4.01957e-05
4.17321e-05
4.34858e-05
4.55163e-05
4.79003e-05
4.89462e-05
4.9929e-05
5.09115e-05
5.18968e-05
5.28854e-05
5.38773e-05
5.48723e-05
5.58705e-05
5.68717e-05
5.78757e-05
5.88823e-05
5.98914e-05
6.09026e-05
6.19158e-05
6.29305e-05
6.39465e-05
6.49633e-05
6.59808e-05
6.69983e-05
6.80156e-05
6.90322e-05
7.00477e-05
7.10615e-05
7.20732e-05
7.30823e-05
7.40884e-05
7.50908e-05
7.6089e-05
7.70826e-05
7.80708e-05
7.90532e-05
8.00292e-05
8.09981e-05
8.19594e-05
8.29124e-05
8.38565e-05
8.47909e-05
8.57151e-05
8.66283e-05
8.75298e-05
8.84188e-05
8.92946e-05
9.01563e-05
9.10033e-05
9.18346e-05
9.26494e-05
9.3447e-05
9.42266e-05
9.49875e-05
9.5729e-05
9.64507e-05
9.71523e-05
9.78339e-05
9.84961e-05
9.91401e-05
9.97681e-05
0.000100384
0.000100977
0.000101544
0.000102084
0.000102597
0.000103083
0.000103543
0.000103975
0.000104379
0.000104756
0.000105105
0.000105427
0.00010572
0.000105985
0.000106222
0.000106431
0.000106611
0.000106763
0.000106887
0.000106982
0.000107049
0.000107087
0.000107098
0.00010708
0.000107034
0.000106961
0.00010686
0.000106732
0.000106577
0.000106395
0.000106187
0.000105952
0.000105692
0.000105407
0.000105097
0.000104762
0.000104404
0.000104023
0.000103619
0.000103192
0.000102745
0.000102276
0.000101787
0.000101278
0.000100751
0.000100206
9.96424e-05
9.90627e-05
9.84671e-05
9.78561e-05
9.72306e-05
9.65917e-05
9.59399e-05
9.52757e-05
9.46005e-05
9.39143e-05
9.32185e-05
9.25143e-05
9.18008e-05
9.1081e-05
9.0354e-05
8.96181e-05
8.88874e-05
8.81755e-05
8.76117e-05
8.71785e-05
8.67613e-05
8.63474e-05
8.59352e-05
8.55239e-05
8.51132e-05
8.4702e-05
8.4288e-05
8.38675e-05
8.34309e-05
8.29644e-05
8.2416e-05
8.17296e-05
8.04681e-05
3.90315e-06
2.22869e-05
4.14305e-05
5.45214e-05
6.19327e-05
6.60658e-05
6.88747e-05
7.13936e-05
7.41271e-05
7.72534e-05
8.07559e-05
8.45826e-05
8.86869e-05
9.30307e-05
9.75827e-05
0.000102317
0.000107209
0.000112241
0.000117394
0.000122651
0.000127999
0.000133423
0.000138911
0.00014445
0.000150028
0.000155632
0.00016125
0.000166866
0.000172468
0.00017804
0.000183565
0.000189026
0.000194406
0.000199685
0.000204846
0.00020987
0.000214746
0.000219463
0.000224022
0.000228438
0.000232748
0.000237021
0.00024138
0.000246033
0.000251332
0.000257907
0.000264781
0.000271766
0.000278842
0.000286011
0.000293276
0.000300641
0.000308109
0.000315681
0.00032336
0.000331146
0.00033904
0.000347044
0.000355157
0.000363379
0.00037171
0.00038015
0.000388698
0.000397352
0.000406111
0.000414973
0.000423936
0.000432999
0.000442159
0.000451413
0.000460758
0.000470192
0.000479711
0.000489312
0.000498993
0.000508749
0.000518577
0.000528474
0.000538436
0.00054846
0.00055854
0.000568674
0.000578857
0.000589084
0.00059935
0.000609649
0.000619975
0.00063032
0.000640676
0.000651032
0.000661379
0.000671703
0.00068199
0.000692223
0.000702384
0.000712452
0.000722402
0.000732209
0.000741842
0.000751268
0.000760449
0.000769146
0.000777475
0.00078561
0.00079357
0.000801355
0.00080896
0.000816383
0.00082362
0.000830666
0.000837518
0.000844173
0.000850625
0.000856872
0.000862909
0.000868733
0.000874341
0.000879728
0.000884892
0.000889828
0.000894535
0.000899008
0.000903247
0.000907248
0.000911011
0.000914534
0.000917815
0.000920854
0.00092365
0.000926201
0.000928508
0.00093057
0.000932388
0.000933965
0.000935301
0.000936399
0.000937258
0.000937882
0.000938272
0.000938433
0.000938369
0.000938083
0.000937577
0.000936856
0.000935925
0.00093479
0.000933455
0.000931924
0.000930205
0.000928304
0.000926226
0.000923975
0.000921563
0.000918994
0.000916273
0.000913411
0.000910414
0.000907283
0.000904041
0.00090068
0.000897212
0.000893676
0.000890013
0.000886153
0.000881921
0.0008762
0.000869122
0.000861634
0.000854006
0.000846317
0.000838598
0.000830862
0.000823113
0.00081535
0.000807559
0.000799715
0.000791745
0.000783528
0.000774194
0.000755859
5.02249e-06
3.57548e-05
6.71306e-05
8.8135e-05
0.000101543
0.000110395
0.000116953
0.000122674
0.000128372
0.000134423
0.000140946
0.000147948
0.000155392
0.000163234
0.000171428
0.000179936
0.000188719
0.000197747
0.000206991
0.000216423
0.000226021
0.000235763
0.00024563
0.000255603
0.000265666
0.000275804
0.000286001
0.000296245
0.000306523
0.000316826
0.000327145
0.000337472
0.000347804
0.000358142
0.000368489
0.000378857
0.000389265
0.000399742
0.000410328
0.000421079
0.000432066
0.000443377
0.000455113
0.000467376
0.000480243
0.000493699
0.000507484
0.0005215
0.000535725
0.00055016
0.000564808
0.000579674
0.000594763
0.000610078
0.000625622
0.000641398
0.000657407
0.000673651
0.000690128
0.00070684
0.000723786
0.000740962
0.000758368
0.000776001
0.000793856
0.00081193
0.000830218
0.000848715
0.000867415
0.000886311
0.000905396
0.000924664
0.000944106
0.000963715
0.000983481
0.0010034
0.00102345
0.00104363
0.00106394
0.00108435
0.00110486
0.00112546
0.00114614
0.00116687
0.00118766
0.00120849
0.00122933
0.00125018
0.00127101
0.00129181
0.00131254
0.00133319
0.00135372
0.0013741
0.0013943
0.00141427
0.00143398
0.00145339
0.00147243
0.00149107
0.00150925
0.00152669
0.00154365
0.00156022
0.00157641
0.00159223
0.00160766
0.00162271
0.00163736
0.00165161
0.00166545
0.00167888
0.00169187
0.00170444
0.00171656
0.00172823
0.00173946
0.00175022
0.00176051
0.00177033
0.00177967
0.00178852
0.00179688
0.00180475
0.00181212
0.001819
0.00182537
0.00183124
0.0018366
0.00184146
0.00184581
0.00184966
0.001853
0.00185584
0.00185818
0.00186003
0.00186139
0.00186226
0.00186265
0.00186256
0.00186201
0.001861
0.00185953
0.00185763
0.00185528
0.00185252
0.00184935
0.00184576
0.00184179
0.00183745
0.00183273
0.00182767
0.00182226
0.00181653
0.00181049
0.00180416
0.00179755
0.00179067
0.00178356
0.00177622
0.00176867
0.00176095
0.00175302
0.00174474
0.00173588
0.00172566
0.001714
0.00170166
0.00168897
0.0016761
0.00166312
0.00165006
0.00163693
0.00162374
0.00161045
0.00159698
0.00158311
0.00156837
0.00155101
0.00152276
5.96194e-06
4.56107e-05
8.64262e-05
0.00011509
0.000134422
0.000147933
0.000158268
0.00016719
0.000175753
0.000184518
0.000193731
0.000203469
0.000213731
0.000224481
0.000235675
0.000247267
0.000259216
0.000271484
0.000284038
0.000296849
0.00030989
0.00032314
0.000336578
0.000350189
0.000363957
0.000377873
0.000391925
0.000406109
0.000420421
0.00043486
0.000449429
0.000464132
0.000478982
0.000493991
0.000509179
0.00052457
0.000540194
0.000556087
0.000572289
0.000588843
0.000605795
0.000623188
0.000641054
0.000659409
0.000678238
0.000697492
0.000717099
0.000737019
0.000757241
0.000777767
0.000798601
0.000819748
0.000841213
0.000863
0.000885112
0.000907551
0.000930319
0.000953417
0.000976844
0.0010006
0.00102468
0.00104908
0.0010738
0.00109883
0.00112416
0.0011498
0.00117573
0.00120194
0.00122842
0.00125516
0.00128215
0.00130939
0.00133684
0.00136451
0.00139238
0.00142042
0.00144863
0.001477
0.00150549
0.00153411
0.00156282
0.00159161
0.00162046
0.00164935
0.00167826
0.00170717
0.00173605
0.00176489
0.00179365
0.00182231
0.00185083
0.00187918
0.00190732
0.00193522
0.00196284
0.00199012
0.00201702
0.0020435
0.0020695
0.00209498
0.0021198
0.00214389
0.00216738
0.00219033
0.00221277
0.00223468
0.00225605
0.00227689
0.00229718
0.00231691
0.00233606
0.00235464
0.00237264
0.00239003
0.00240682
0.00242299
0.00243854
0.00245345
0.00246772
0.00248134
0.0024943
0.00250659
0.00251821
0.00252916
0.00253943
0.00254901
0.00255791
0.00256611
0.00257363
0.00258045
0.00258657
0.00259201
0.00259675
0.0026008
0.00260417
0.00260686
0.00260888
0.00261023
0.00261091
0.00261094
0.00261033
0.00260908
0.00260721
0.00260472
0.00260163
0.00259796
0.00259371
0.00258889
0.00258354
0.00257765
0.00257126
0.00256436
0.002557
0.00254917
0.00254091
0.00253223
0.00252316
0.00251372
0.00250394
0.00249385
0.00248345
0.00247277
0.00246179
0.00245038
0.00243838
0.00242534
0.00241116
0.00239624
0.00238086
0.0023652
0.00234935
0.00233337
0.00231728
0.00230108
0.00228474
0.00226814
0.00225102
0.0022327
0.00221127
0.00218055
6.66316e-06
5.30009e-05
0.0001022
0.000137924
0.000162898
0.000180926
0.000194933
0.000206925
0.000218165
0.00022938
0.000240941
0.000253006
0.00026562
0.000278771
0.000292423
0.000306536
0.000321067
0.000335978
0.000351237
0.000366813
0.000382682
0.000398824
0.00041522
0.000431859
0.000448729
0.000465825
0.000483142
0.000500679
0.000518441
0.000536431
0.000554659
0.000573137
0.000591879
0.000610905
0.000630235
0.000649893
0.000669904
0.000690295
0.000711093
0.000732321
0.000754001
0.000776144
0.000798756
0.000821827
0.00084534
0.000869267
0.000893583
0.000918274
0.000943336
0.000968771
0.000994584
0.00102078
0.00104736
0.00107433
0.0011017
0.00112946
0.00115761
0.00118616
0.00121511
0.00124444
0.00127416
0.00130426
0.00133473
0.00136557
0.00139677
0.00142831
0.00146019
0.00149239
0.00152491
0.00155772
0.00159081
0.00162416
0.00165776
0.00169158
0.00172561
0.00175983
0.00179421
0.00182873
0.00186337
0.00189811
0.00193292
0.00196778
0.00200266
0.00203753
0.00207238
0.00210716
0.00214186
0.00217645
0.00221089
0.00224515
0.00227921
0.00231301
0.00234653
0.00237973
0.00241255
0.00244497
0.00247692
0.00250837
0.00253927
0.00256958
0.00259907
0.00262784
0.00265595
0.00268345
0.00271032
0.00273658
0.0027622
0.00278719
0.00281153
0.00283521
0.00285822
0.00288055
0.00290219
0.00292312
0.00294335
0.00296285
0.00298162
0.00299965
0.00301692
0.00303344
0.00304918
0.00306414
0.00307832
0.00309171
0.0031043
0.00311608
0.00312707
0.00313724
0.00314661
0.00315516
0.00316289
0.00316982
0.00317593
0.00318123
0.00318572
0.00318942
0.00319232
0.00319443
0.00319575
0.0031963
0.00319609
0.00319512
0.00319341
0.00319097
0.00318781
0.00318395
0.00317941
0.00317418
0.0031683
0.00316179
0.00315466
0.00314692
0.00313861
0.00312974
0.00312034
0.00311043
0.00310004
0.0030892
0.00307792
0.00306625
0.0030542
0.00304178
0.00302898
0.00301574
0.00300193
0.00298731
0.0029718
0.00295561
0.00293893
0.00292191
0.00290465
0.00288721
0.00286963
0.00285193
0.00283409
0.00281599
0.00279738
0.00277758
0.00275495
0.00272543
7.1567e-06
5.89638e-05
0.000115184
0.000157203
0.000187442
0.000209801
0.000227371
0.00024233
0.000256106
0.000269574
0.000283224
0.0002973
0.000311903
0.000327055
0.00034274
0.000358928
0.000375581
0.000392666
0.00041015
0.000428007
0.000446213
0.000464752
0.000483608
0.000502771
0.000522235
0.000541995
0.000562052
0.000582408
0.000603068
0.00062404
0.000645335
0.000666966
0.000688946
0.000711293
0.000734024
0.000757156
0.000780707
0.000804694
0.000829132
0.000854032
0.0008794
0.000905238
0.000931544
0.000958307
0.000985516
0.00101316
0.00104122
0.00106971
0.00109861
0.00112794
0.00115769
0.00118787
0.00121848
0.00124953
0.00128101
0.00131293
0.00134529
0.00137809
0.00141132
0.00144497
0.00147905
0.00151354
0.00154844
0.00158373
0.00161941
0.00165546
0.00169186
0.00172861
0.00176569
0.00180307
0.00184075
0.00187869
0.00191688
0.00195529
0.0019939
0.00203268
0.00207161
0.00211066
0.00214981
0.00218901
0.00222826
0.0022675
0.00230673
0.0023459
0.00238498
0.00242395
0.00246276
0.0025014
0.00253983
0.00257801
0.00261592
0.00265351
0.00269075
0.0027276
0.00276403
0.00279998
0.00283542
0.0028703
0.00290457
0.00293817
0.00297095
0.00300299
0.00303435
0.00306503
0.00309504
0.00312438
0.00315304
0.003181
0.00320825
0.00323479
0.00326061
0.00328568
0.00331001
0.00333358
0.00335637
0.00337838
0.0033996
0.00342001
0.0034396
0.00345837
0.00347631
0.00349339
0.00350962
0.003525
0.00353951
0.00355314
0.00356591
0.00357779
0.00358879
0.0035989
0.00360812
0.00361646
0.0036239
0.00363047
0.00363615
0.00364095
0.00364488
0.00364794
0.00365014
0.00365149
0.003652
0.00365168
0.00365053
0.00364857
0.00364581
0.00364228
0.00363798
0.00363292
0.00362714
0.00362064
0.00361344
0.00360557
0.00359704
0.00358788
0.00357812
0.00356778
0.00355689
0.00354548
0.00353357
0.0035212
0.00350838
0.00349513
0.00348145
0.0034673
0.00345261
0.00343727
0.00342121
0.00340454
0.00338738
0.00336986
0.00335206
0.00333406
0.00331591
0.00329764
0.00327926
0.00326069
0.0032417
0.00322174
0.00319952
0.0031725
7.52797e-06
6.35872e-05
0.000125619
0.000173181
0.00020825
0.000234693
0.000255678
0.000273491
0.000289685
0.000305256
0.0003208
0.000336646
0.000352957
0.000369796
0.000387175
0.000405078
0.000423478
0.000442348
0.00046166
0.00048139
0.000501519
0.00052203
0.000542911
0.000564154
0.000585755
0.000607711
0.000630024
0.000652696
0.000675734
0.000699145
0.000722938
0.000747125
0.000771717
0.000796726
0.000822165
0.000848046
0.00087438
0.000901176
0.000928442
0.000956182
0.000984396
0.00101308
0.00104224
0.00107186
0.00110194
0.00113247
0.00116345
0.00119488
0.00122675
0.00125908
0.00129186
0.0013251
0.00135879
0.00139295
0.00142757
0.00146265
0.0014982
0.0015342
0.00157065
0.00160754
0.00164488
0.00168265
0.00172084
0.00175943
0.00179842
0.0018378
0.00187754
0.00191763
0.00195805
0.00199877
0.00203979
0.00208106
0.00212258
0.00216431
0.00220623
0.0022483
0.00229051
0.00233281
0.00237517
0.00241757
0.00245997
0.00250234
0.00254464
0.00258683
0.0026289
0.00267079
0.00271248
0.00275394
0.00279513
0.00283602
0.00287658
0.00291678
0.00295657
0.00299593
0.00303482
0.0030732
0.00311103
0.00314827
0.00318488
0.00322074
0.00325582
0.00329017
0.00332383
0.0033568
0.00338908
0.00342066
0.00345154
0.0034817
0.00351112
0.00353981
0.00356774
0.00359491
0.0036213
0.0036469
0.0036717
0.00369568
0.00371884
0.00374116
0.00376263
0.00378325
0.00380298
0.00382184
0.0038398
0.00385687
0.00387303
0.00388829
0.00390263
0.00391604
0.00392853
0.00394009
0.00395072
0.00396041
0.00396917
0.003977
0.00398391
0.00398988
0.00399494
0.00399907
0.0040023
0.00400462
0.00400606
0.00400661
0.00400627
0.00400508
0.00400305
0.00400018
0.00399648
0.00399197
0.00398669
0.00398063
0.00397381
0.00396627
0.00395801
0.00394908
0.00393949
0.00392926
0.00391844
0.00390704
0.0038951
0.00388263
0.00386967
0.00385623
0.00384231
0.00382791
0.00381299
0.00379749
0.00378139
0.00376473
0.00374761
0.0037301
0.00371231
0.0036943
0.00367615
0.0036579
0.00363958
0.00362115
0.00360245
0.00358306
0.003562
0.00353771
7.80366e-06
6.70661e-05
0.000133779
0.000186122
0.000225538
0.000255761
0.000279961
0.000300485
0.000318971
0.000336509
0.000353786
0.000371208
0.000389
0.00040727
0.00042606
0.000445376
0.000465205
0.000485527
0.000506321
0.000527567
0.000549247
0.000571349
0.000593861
0.000616778
0.000640094
0.000663809
0.000687923
0.000712439
0.000737362
0.000762698
0.000788454
0.000814638
0.000841259
0.000868325
0.000895844
0.000923823
0.000952268
0.000981185
0.00101058
0.00104044
0.00107078
0.0011016
0.00113288
0.00116463
0.00119685
0.00122952
0.00126266
0.00129626
0.00133032
0.00136484
0.00139983
0.00143529
0.00147122
0.00150762
0.0015445
0.00158184
0.00161966
0.00165793
0.00169667
0.00173586
0.00177549
0.00181555
0.00185605
0.00189695
0.00193825
0.00197994
0.002022
0.0020644
0.00210713
0.00215017
0.0021935
0.00223708
0.0022809
0.00232493
0.00236914
0.00241349
0.00245796
0.00250251
0.00254711
0.00259172
0.00263631
0.00268084
0.00272527
0.00276957
0.0028137
0.00285762
0.0029013
0.00294471
0.0029878
0.00303056
0.00307295
0.00311493
0.00315648
0.00319756
0.00323815
0.00327821
0.0033177
0.00335658
0.00339482
0.00343228
0.00346903
0.00350508
0.00354045
0.00357513
0.00360914
0.00364244
0.00367504
0.00370691
0.00373805
0.00376845
0.00379808
0.00382694
0.00385501
0.00388229
0.00390875
0.00393439
0.00395919
0.00398314
0.00400622
0.00402842
0.00404974
0.00407015
0.00408966
0.00410824
0.0041259
0.00414264
0.00415843
0.00417328
0.00418718
0.00420012
0.0042121
0.00422313
0.00423319
0.0042423
0.00425045
0.00425765
0.00426389
0.00426918
0.00427353
0.00427695
0.00427945
0.00428103
0.00428168
0.00428144
0.00428033
0.00427835
0.00427549
0.00427178
0.00426726
0.00426192
0.00425579
0.0042489
0.00424126
0.00423291
0.00422386
0.00421414
0.00420377
0.00419279
0.00418122
0.00416909
0.00415641
0.00414322
0.00412952
0.00411532
0.0041006
0.00408535
0.00406955
0.00405323
0.00403646
0.00401931
0.00400186
0.0039842
0.00396639
0.00394851
0.00393061
0.00391269
0.00389465
0.00387619
0.00385656
0.00383477
8.00192e-06
6.958e-05
0.000139932
0.000196307
0.00023956
0.000273215
0.000300389
0.000323447
0.000344079
0.000363444
0.000382302
0.000401129
0.000420206
0.000439685
0.000459643
0.000480108
0.000501083
0.000522559
0.000544522
0.000566957
0.000589849
0.000613188
0.000636964
0.00066117
0.000685803
0.000710862
0.000736345
0.000762255
0.000788595
0.000815368
0.00084258
0.000870236
0.00089834
0.000926898
0.000955914
0.000985393
0.00101534
0.00104575
0.00107663
0.00110797
0.00113979
0.00117206
0.0012048
0.001238
0.00127166
0.00130578
0.00134036
0.0013754
0.0014109
0.00144686
0.0014833
0.00152019
0.00155756
0.0015954
0.0016337
0.00167248
0.00171172
0.00175142
0.00179157
0.00183218
0.00187323
0.00191472
0.00195663
0.00199896
0.00204169
0.0020848
0.00212828
0.00217212
0.00221629
0.00226077
0.00230554
0.00235058
0.00239586
0.00244136
0.00248703
0.00253286
0.0025788
0.00262483
0.00267091
0.00271699
0.00276305
0.00280904
0.00285493
0.00290066
0.00294621
0.00299154
0.0030366
0.00308136
0.00312579
0.00316985
0.00321352
0.00325675
0.00329954
0.00334184
0.00338363
0.00342488
0.00346555
0.00350562
0.00354502
0.00358373
0.00362177
0.00365916
0.0036959
0.00373198
0.00376739
0.00380212
0.00383615
0.00386947
0.00390207
0.00393393
0.00396503
0.00399537
0.00402492
0.00405367
0.00408161
0.00410873
0.004135
0.00416043
0.00418498
0.00420865
0.00423141
0.00425327
0.00427422
0.00429423
0.00431331
0.00433145
0.00434864
0.00436488
0.00438015
0.00439445
0.00440777
0.00442012
0.00443149
0.00444189
0.00445134
0.0044598
0.00446728
0.00447378
0.00447933
0.00448392
0.00448761
0.00449031
0.00449208
0.00449292
0.00449286
0.0044919
0.00449006
0.00448734
0.00448378
0.00447939
0.00447418
0.00446818
0.0044614
0.00445388
0.00444564
0.00443669
0.00442707
0.00441679
0.0044059
0.0043944
0.00438233
0.00436971
0.00435655
0.00434286
0.00432865
0.00431392
0.00429867
0.00428293
0.00426674
0.00425017
0.0042333
0.0042162
0.00419897
0.00418169
0.00416442
0.00414722
0.00413001
0.0041126
0.00409443
0.0040748
8.13659e-06
7.12839e-05
0.000144335
0.000204017
0.00025059
0.000287305
0.000317181
0.000342566
0.000365174
0.000386214
0.000406501
0.000426568
0.000446747
0.000467234
0.000488137
0.000509508
0.000531369
0.000553723
0.000576562
0.000599877
0.000623658
0.000647895
0.00067258
0.000697706
0.00072327
0.000749268
0.0007757
0.000802565
0.000829865
0.000857601
0.000885776
0.000914392
0.000943451
0.000972957
0.00100291
0.00103331
0.00106416
0.00109546
0.00112721
0.00115941
0.00119206
0.00122515
0.00125868
0.00129266
0.00132709
0.00136195
0.00139726
0.00143302
0.00146922
0.00150588
0.00154299
0.00158055
0.00161857
0.00165705
0.00169599
0.00173539
0.00177524
0.00181555
0.00185631
0.00189753
0.00193918
0.00198128
0.0020238
0.00206674
0.00211009
0.00215384
0.00219798
0.00224248
0.00228733
0.00233252
0.00237802
0.00242381
0.00246986
0.00251615
0.00256264
0.00260932
0.00265613
0.00270306
0.00275005
0.00279707
0.00284409
0.00289105
0.00293791
0.00298464
0.00303119
0.00307751
0.00312356
0.0031693
0.0032147
0.00325973
0.00330434
0.00334851
0.00339221
0.00343543
0.00347812
0.00352027
0.00356186
0.00360284
0.0036432
0.00368296
0.00372212
0.00376067
0.0037986
0.00383592
0.00387259
0.0039086
0.00394394
0.00397859
0.00401252
0.00404573
0.0040782
0.00410991
0.00414085
0.00417099
0.00420033
0.00422884
0.00425652
0.00428336
0.00430932
0.00433439
0.00435857
0.00438183
0.00440417
0.00442557
0.00444604
0.00446556
0.00448414
0.00450176
0.00451841
0.00453407
0.00454874
0.00456242
0.00457512
0.00458685
0.00459762
0.00460739
0.00461616
0.00462394
0.00463075
0.0046366
0.00464149
0.00464542
0.0046484
0.00465044
0.00465157
0.00465178
0.00465109
0.00464953
0.00464709
0.00464381
0.0046397
0.00463477
0.00462905
0.00462257
0.00461533
0.00460737
0.00459871
0.00458937
0.00457938
0.00456876
0.00455753
0.00454572
0.00453334
0.00452041
0.00450695
0.00449296
0.00447846
0.00446346
0.00444803
0.0044322
0.00441607
0.0043997
0.0043832
0.00436666
0.00435017
0.00433378
0.00431749
0.00430115
0.00428433
0.00426652
8.21888e-06
7.23127e-05
0.000147226
0.000209532
0.000258912
0.000298304
0.00033059
0.000358071
0.000382466
0.000405011
0.000426564
0.000447703
0.000468805
0.000490103
0.000511736
0.000533781
0.000556277
0.000579238
0.000602667
0.00062656
0.000650908
0.000675706
0.000700944
0.000726618
0.000752721
0.00077925
0.000806203
0.000833578
0.000861373
0.000889588
0.000918223
0.000947278
0.000976752
0.00100665
0.00103696
0.00106769
0.00109884
0.00113041
0.0011624
0.0011948
0.00122761
0.00126083
0.00129447
0.00132852
0.00136299
0.00139786
0.00143316
0.00146888
0.00150502
0.00154159
0.00157859
0.00161603
0.0016539
0.00169223
0.00173099
0.00177021
0.00180989
0.00185001
0.00189059
0.00193163
0.00197312
0.00201506
0.00205745
0.00210028
0.00214354
0.00218724
0.00223135
0.00227586
0.00232077
0.00236605
0.00241169
0.00245767
0.00250396
0.00255053
0.00259737
0.00264443
0.00269168
0.0027391
0.00278663
0.00283423
0.00288187
0.0029295
0.00297706
0.00302451
0.00307181
0.0031189
0.00316574
0.00321227
0.00325846
0.00330428
0.00334967
0.00339462
0.00343909
0.00348307
0.00352652
0.00356943
0.00361177
0.00365358
0.00369487
0.00373564
0.00377586
0.00381553
0.00385463
0.00389314
0.00393103
0.0039683
0.00400491
0.00404085
0.0040761
0.00411064
0.00414445
0.00417751
0.00420981
0.00424132
0.00427204
0.00430194
0.00433101
0.00435925
0.00438661
0.00441309
0.00443866
0.00446331
0.00448705
0.00450985
0.00453171
0.00455263
0.00457259
0.00459163
0.00460966
0.0046267
0.00464275
0.0046578
0.00467187
0.00468495
0.00469706
0.00470817
0.00471828
0.00472741
0.00473556
0.00474274
0.00474895
0.0047542
0.0047585
0.00476186
0.00476429
0.0047658
0.0047664
0.00476612
0.00476496
0.00476293
0.00476007
0.00475638
0.00475188
0.0047466
0.00474055
0.00473376
0.00472624
0.00471802
0.00470913
0.00469957
0.00468939
0.00467858
0.00466719
0.00465522
0.0046427
0.00462964
0.00461605
0.00460196
0.00458743
0.00457249
0.00455723
0.00454172
0.00452607
0.00451038
0.00449474
0.00447924
0.00446389
0.0044486
0.00443299
0.00441671
8.25829e-06
7.27857e-05
0.00014883
0.000213125
0.000264812
0.000306494
0.000340885
0.000370214
0.000396185
0.000420046
0.000442686
0.000464717
0.000486552
0.000508458
0.000530601
0.000553081
0.000575952
0.000599243
0.000622964
0.000647116
0.000671696
0.000696696
0.000722111
0.000747933
0.000774157
0.000800778
0.000827789
0.000855189
0.000882974
0.00091114
0.000939685
0.000968607
0.000997903
0.00102757
0.00105761