/*--------------------------------*- C++ -*----------------------------------*\
| =========                 |                                                 |
| \\      /  F ield         | OpenFOAM Extend Project: Open source CFD        |
|  \\    /   O peration     | Version:  1.6-ext                               |
|   \\  /    A nd           | Web:      www.extend-project.de                 |
|    \\/     M anipulation  |                                                 |
\*---------------------------------------------------------------------------*/
FoamFile
{
    version     2.0;
    format      ascii;
    class       volScalarField;
    location    "2000";
    object      p;
}
// * * * * * * * * * * * * * * * * * * * * * * * * * * * * * * * * * * * * * //

dimensions      [0 2 -2 0 0 0 0];

internalField   nonuniform List<scalar> 
12225
(
-1.07502
-3.87193
-4.75366
-5.01031
-5.18489
-5.33045
-5.44511
-5.53899
-5.62122
-5.69617
-5.76599
-5.8322
-5.89615
-5.95908
-6.02234
-6.08745
-6.15622
-6.20923
-4.98914
-5.32519
-5.43351
-5.39576
-5.41291
-5.46825
-5.52976
-5.59082
-5.65191
-5.71283
-5.77314
-5.83278
-5.89212
-5.95178
-6.01268
-6.07631
-6.14633
-6.24415
-4.90007
-4.76248
-4.96992
-5.09885
-5.21513
-5.33143
-5.43377
-5.52239
-5.60207
-5.67573
-5.74489
-5.81078
-5.87454
-5.93728
-6.00022
-6.06491
-6.1341
-6.21657
-4.79469
-4.77801
-5.03238
-5.18484
-5.29073
-5.38952
-5.47763
-5.55542
-5.62676
-5.69402
-5.7583
-5.82041
-5.88112
-5.94123
-6.00159
-6.06323
-6.12734
-6.19673
-4.81764
-4.86241
-5.06737
-5.20019
-5.29483
-5.38598
-5.47093
-5.54795
-5.61932
-5.68682
-5.75135
-5.81358
-5.87417
-5.93379
-5.99304
-6.05246
-6.11211
-6.17154
-4.88926
-4.93736
-5.09348
-5.21361
-5.30568
-5.39364
-5.47637
-5.55206
-5.62233
-5.68875
-5.75219
-5.81328
-5.87259
-5.93061
-5.98771
-6.04399
-6.09892
-6.15094
-4.95369
-4.99406
-5.11741
-5.22776
-5.31724
-5.40146
-5.48106
-5.5547
-5.62344
-5.68854
-5.75077
-5.81063
-5.86856
-5.92489
-5.97975
-6.03297
-6.0838
-6.13048
-5.00397
-5.03926
-5.14245
-5.24324
-5.32879
-5.40927
-5.48583
-5.55742
-5.62464
-5.68846
-5.74948
-5.80812
-5.8647
-5.91942
-5.97228
-6.023
-6.07086
-6.11422
-5.0466
-5.07836
-5.16624
-5.2581
-5.33952
-5.41655
-5.49031
-5.55991
-5.62564
-5.68817
-5.74799
-5.80543
-5.8607
-5.91392
-5.965
-6.01362
-6.05914
-6.10016
-5.09103
-5.11925
-5.19301
-5.27541
-5.35196
-5.42509
-5.49566
-5.5629
-5.62679
-5.68775
-5.74611
-5.80209
-5.85584
-5.90735
-5.95652
-6.00301
-6.04632
-6.08531
-5.13651
-5.16106
-5.22243
-5.29528
-5.36623
-5.43502
-5.502
-5.56646
-5.62815
-5.6872
-5.74381
-5.79808
-5.85006
-5.8997
-5.94685
-5.99123
-6.03246
-6.06971
-5.18211
-5.20307
-5.25392
-5.31747
-5.38227
-5.44632
-5.50936
-5.57065
-5.62976
-5.68657
-5.74113
-5.79342
-5.84342
-5.89104
-5.93612
-5.97844
-6.01775
-6.05346
-5.22676
-5.24441
-5.28651
-5.3414
-5.39978
-5.4588
-5.51761
-5.57541
-5.63159
-5.68585
-5.73807
-5.78816
-5.836
-5.88149
-5.92448
-5.96482
-6.00235
-6.03666
-5.26914
-5.2839
-5.31888
-5.36604
-5.41809
-5.47197
-5.52641
-5.58049
-5.63348
-5.68494
-5.73461
-5.7823
-5.82787
-5.87118
-5.91211
-5.95056
-5.98643
-6.01945
-5.30758
-5.31997
-5.34929
-5.38988
-5.43608
-5.48497
-5.53509
-5.5854
-5.63509
-5.68362
-5.73061
-5.77583
-5.81909
-5.86024
-5.89918
-5.93584
-5.97017
-6.00197
-5.33992
-5.35046
-5.3755
-5.41085
-5.45204
-5.49647
-5.5426
-5.58935
-5.63584
-5.68149
-5.72585
-5.76864
-5.80965
-5.84874
-5.88582
-5.92082
-5.95373
-5.98439
-5.36316
-5.37242
-5.39451
-5.42612
-5.46354
-5.50445
-5.54733
-5.59106
-5.63479
-5.67788
-5.71988
-5.76048
-5.79947
-5.83672
-5.87212
-5.90566
-5.9373
-5.96695
-5.37235
-5.381
-5.40172
-5.43156
-5.46711
-5.50613
-5.54713
-5.58902
-5.63094
-5.67229
-5.71262
-5.75163
-5.78911
-5.82496
-5.85908
-5.89146
-5.92209
-5.95087
-5.36673
-5.37542
-5.39633
-5.42645
-5.46221
-5.50121
-5.54196
-5.58341
-5.62475
-5.6654
-5.70495
-5.74315
-5.77981
-5.81484
-5.8482
-5.87987
-5.90985
-5.93806
-5.35019
-5.35933
-5.38163
-5.41376
-5.45144
-5.49191
-5.53366
-5.57574
-5.6174
-5.65812
-5.69756
-5.73551
-5.77183
-5.80647
-5.83941
-5.87064
-5.9002
-5.928
-5.32576
-5.33547
-5.36022
-5.39603
-5.43711
-5.48014
-5.52378
-5.56725
-5.60987
-5.6512
-5.69098
-5.72908
-5.76541
-5.79997
-5.83275
-5.86379
-5.89314
-5.92073
-5.29565
-5.30554
-5.33385
-5.3752
-5.4209
-5.46719
-5.51327
-5.55856
-5.60246
-5.64463
-5.68495
-5.72335
-5.75983
-5.79442
-5.82713
-5.85803
-5.88717
-5.91448
-5.26182
-5.27043
-5.30381
-5.35309
-5.40452
-5.45455
-5.50347
-5.55092
-5.59634
-5.63956
-5.68059
-5.71948
-5.75627
-5.79103
-5.82382
-5.8547
-5.88375
-5.91094
-5.22614
-5.23032
-5.27093
-5.33037
-5.38778
-5.44159
-5.49348
-5.543
-5.58973
-5.63378
-5.67538
-5.71466
-5.75173
-5.78666
-5.81954
-5.85042
-5.87936
-5.90621
-5.18974
-5.18514
-5.23988
-5.31195
-5.37436
-5.43197
-5.48746
-5.53956
-5.58789
-5.63297
-5.67521
-5.71488
-5.75216
-5.78718
-5.82008
-5.85092
-5.87974
-5.90646
-5.15037
-5.11933
-5.20381
-5.29286
-5.35702
-5.41543
-5.47239
-5.52566
-5.57499
-5.62107
-5.6643
-5.70491
-5.74305
-5.77889
-5.81253
-5.84402
-5.87332
-5.90006
-5.15052
-5.03367
-5.16718
-5.29189
-5.37082
-5.43699
-5.49674
-5.54949
-5.59695
-5.64078
-5.68176
-5.72026
-5.75652
-5.79074
-5.82304
-5.85348
-5.88201
-5.90851
-5.25691
-4.9407
-5.02869
-5.13753
-5.22994
-5.32038
-5.40193
-5.47224
-5.53389
-5.5892
-5.63939
-5.68527
-5.72748
-5.76654
-5.80285
-5.83672
-5.86823
-5.89738
-5.52489
-5.58471
-5.62034
-5.55689
-5.5316
-5.54555
-5.57209
-5.60209
-5.63434
-5.66803
-5.7021
-5.73577
-5.76865
-5.80053
-5.83131
-5.86102
-5.88975
-5.91849
-1.75858
-3.98835
-4.81255
-5.05406
-5.20103
-5.32236
-5.41659
-5.49096
-5.55364
-5.60886
-5.65851
-5.70369
-5.74522
-5.78371
-5.81965
-5.85355
-5.886
-5.92062
-6.66575
-6.66587
-6.66646
-6.66737
-6.66836
-6.66938
-6.67045
-6.67168
-6.67321
-6.67511
-6.67742
-6.68019
-6.68348
-6.68736
-6.69185
-6.69701
-6.70286
-6.70943
-6.71672
-6.72475
-6.73352
-6.74304
-6.75328
-6.76426
-6.77596
-6.78837
-6.80148
-6.81528
-6.82976
-6.84491
-6.86071
-6.87715
-6.89422
-6.91192
-6.93022
-6.94913
-6.96863
-6.98872
-7.00939
-7.03064
-7.05247
-7.07489
-7.09796
-7.12175
-7.14624
-7.17116
-7.19637
-7.22193
-7.24782
-7.27402
-7.30051
-7.32725
-7.3542
-7.38131
-7.40853
-7.4358
-7.46306
-7.49024
-7.51726
-7.54404
-7.5705
-7.59654
-7.62207
-7.64696
-7.67112
-7.69442
-7.71674
-7.73794
-7.75789
-7.77643
-7.79341
-7.80868
-7.82207
-7.8334
-7.84249
-7.84915
-7.8532
-7.85441
-7.8526
-7.84753
-7.83899
-7.82674
-7.81055
-7.79019
-7.76539
-7.73591
-7.70151
-7.66191
-7.61686
-7.56612
-7.50942
-7.44653
-7.37721
-7.30122
-7.21837
-7.12844
-7.03127
-6.9267
-6.81458
-6.6948
-6.56724
-6.43175
-6.28828
-6.13684
-5.97748
-5.81026
-5.63524
-5.45251
-5.26217
-5.06434
-4.85916
-4.64678
-4.42736
-4.20111
-3.9682
-3.72888
-3.48336
-3.2319
-2.97476
-2.71222
-2.44457
-2.17212
-1.89518
-1.61408
-1.32916
-1.04074
-0.74919
-0.454851
-0.158085
0.140748
0.441282
0.743153
1.046
1.34946
1.65319
1.95683
2.26004
2.56248
2.86382
3.16375
3.46196
3.75815
4.05205
4.34338
4.63188
4.91732
5.19946
5.4781
5.75304
6.02411
6.29113
6.55395
6.81244
7.06649
7.31598
7.56083
7.80092
8.03625
8.26673
8.4923
8.71298
8.92856
9.1394
9.34528
9.54548
9.74157
9.93318
10.1187
10.2987
10.4733
10.6426
10.8067
10.9656
11.1193
11.2681
11.4119
11.5519
11.6887
11.8309
11.9699
-6.66411
-6.66454
-6.66518
-6.6659
-6.66661
-6.66722
-6.66783
-6.66857
-6.66956
-6.67093
-6.67273
-6.67502
-6.67786
-6.68129
-6.68535
-6.69009
-6.69553
-6.70169
-6.70859
-6.71623
-6.72462
-6.73376
-6.74364
-6.75425
-6.76559
-6.77765
-6.79042
-6.80389
-6.81805
-6.83288
-6.84839
-6.86455
-6.88137
-6.89884
-6.91695
-6.9357
-6.95507
-6.97506
-6.99566
-7.01686
-7.03863
-7.06096
-7.0838
-7.10709
-7.13074
-7.15487
-7.17955
-7.20467
-7.23015
-7.25596
-7.28207
-7.30845
-7.33504
-7.3618
-7.38868
-7.41562
-7.44257
-7.46944
-7.49618
-7.52269
-7.54889
-7.5747
-7.60001
-7.62471
-7.6487
-7.67186
-7.69406
-7.71518
-7.73507
-7.75359
-7.77059
-7.78591
-7.79939
-7.81085
-7.82012
-7.82702
-7.83134
-7.83289
-7.83146
-7.82684
-7.8188
-7.80713
-7.79159
-7.77193
-7.74792
-7.71931
-7.68583
-7.64725
-7.60329
-7.55372
-7.49827
-7.4367
-7.36877
-7.29425
-7.21293
-7.12461
-7.02911
-6.92626
-6.81593
-6.69801
-6.57231
-6.43865
-6.29701
-6.14741
-5.98991
-5.82456
-5.65141
-5.47055
-5.28208
-5.08612
-4.8828
-4.67225
-4.45466
-4.23021
-3.99908
-3.7615
-3.51769
-3.2679
-3.01238
-2.75143
-2.48531
-2.21433
-1.93881
-1.65907
-1.37544
-1.08825
-0.797853
-0.5046
-0.208844
0.0890552
0.388734
0.689829
0.991979
1.29483
1.59802
1.90121
2.20405
2.5062
2.80733
3.10713
3.40528
3.7015
3.9955
4.287
4.57574
4.86148
5.14401
5.42308
5.69851
5.97013
6.23775
6.50121
6.76041
7.01519
7.26544
7.5111
7.75203
7.98821
8.21957
8.44603
8.66768
8.88416
9.09611
9.30332
9.50473
9.70147
9.89324
10.079
10.2594
10.4344
10.6041
10.7686
10.9281
11.0824
11.232
11.3769
11.5187
11.6576
11.8048
11.9409
-6.65994
-6.66112
-6.66261
-6.66374
-6.66439
-6.66481
-6.66524
-6.66586
-6.6668
-6.66812
-6.66991
-6.67219
-6.67501
-6.67842
-6.68245
-6.68712
-6.69247
-6.69851
-6.70525
-6.7127
-6.72088
-6.72977
-6.73938
-6.7497
-6.76072
-6.77244
-6.78485
-6.79794
-6.81171
-6.82614
-6.84122
-6.85695
-6.87333
-6.89033
-6.90796
-6.92621
-6.94507
-6.96454
-6.98461
-7.00526
-7.0265
-7.0483
-7.07066
-7.09352
-7.11683
-7.14059
-7.16478
-7.18937
-7.21433
-7.23962
-7.26522
-7.29109
-7.31718
-7.34346
-7.36986
-7.39634
-7.42284
-7.44928
-7.47559
-7.5017
-7.52752
-7.55296
-7.57792
-7.60231
-7.626
-7.64889
-7.67085
-7.69176
-7.71148
-7.72986
-7.74676
-7.76203
-7.7755
-7.787
-7.79636
-7.8034
-7.80792
-7.80974
-7.80864
-7.80442
-7.79686
-7.78573
-7.77082
-7.75187
-7.72866
-7.70093
-7.66843
-7.63092
-7.58813
-7.53981
-7.48571
-7.42558
-7.35919
-7.2863
-7.20668
-7.12015
-7.02651
-6.92559
-6.81728
-6.70144
-6.57779
-6.44617
-6.30661
-6.15913
-6.00377
-5.84057
-5.6696
-5.49093
-5.30465
-5.11089
-4.90976
-4.70141
-4.48601
-4.26372
-4.03474
-3.79929
-3.55758
-3.30986
-3.05638
-2.79741
-2.53323
-2.26415
-1.99047
-1.7125
-1.43059
-1.14505
-0.856245
-0.564505
-0.270188
0.0263489
0.324746
0.624641
0.925672
1.22748
1.52972
1.83205
2.13411
2.43557
2.73609
3.03537
3.33308
3.62894
3.92266
4.21396
4.50257
4.78826
5.0708
5.34996
5.62553
5.89736
6.16524
6.429
6.68855
6.94372
7.19439
7.44052
7.68188
7.91857
8.15046
8.37743
8.59981
8.81705
9.02953
9.23719
9.43916
9.63666
9.82948
10.0165
10.1982
10.3744
10.5454
10.7112
10.8719
11.0276
11.1787
11.3255
11.4698
11.6108
11.7628
11.8885
-6.65443
-6.65641
-6.659
-6.66089
-6.66202
-6.66285
-6.66364
-6.66459
-6.66582
-6.66742
-6.66945
-6.67195
-6.67498
-6.67857
-6.68275
-6.68753
-6.69296
-6.69903
-6.70577
-6.71319
-6.72128
-6.73006
-6.73952
-6.74966
-6.76047
-6.77196
-6.78411
-6.79692
-6.81039
-6.8245
-6.83925
-6.85463
-6.87064
-6.88726
-6.9045
-6.92234
-6.94077
-6.95979
-6.97939
-6.99955
-7.02026
-7.04152
-7.06331
-7.08562
-7.10841
-7.13169
-7.15541
-7.17956
-7.20409
-7.22897
-7.25417
-7.27965
-7.30538
-7.3313
-7.35736
-7.38351
-7.40969
-7.43583
-7.46185
-7.48769
-7.51326
-7.53847
-7.56322
-7.58741
-7.61094
-7.63368
-7.65552
-7.67634
-7.69599
-7.71434
-7.73125
-7.74655
-7.76009
-7.77171
-7.78122
-7.78846
-7.79324
-7.79535
-7.79461
-7.7908
-7.78371
-7.77313
-7.75881
-7.74054
-7.71806
-7.69114
-7.65952
-7.62295
-7.58119
-7.53396
-7.48102
-7.42213
-7.35702
-7.28548
-7.20728
-7.12221
-7.03008
-6.93072
-6.82402
-6.70976
-6.58764
-6.45755
-6.31956
-6.17367
-6.01992
-5.85834
-5.689
-5.51198
-5.32736
-5.13525
-4.93577
-4.72908
-4.51531
-4.29466
-4.06731
-3.83345
-3.59332
-3.34716
-3.0952
-2.83773
-2.57501
-2.30734
-2.03504
-1.75841
-1.47778
-1.19349
-0.905867
-0.61526
-0.322018
-0.0264966
0.270944
0.569943
0.870141
1.17118
1.47271
1.7744
2.07588
2.37683
2.67691
2.9758
3.27319
3.5688
3.86232
4.15348
4.442
4.72768
5.01025
5.28947
5.56517
5.83717
6.10526
6.36924
6.62909
6.88457
7.13553
7.38209
7.62376
7.8609
8.09349
8.32105
8.54394
8.76175
8.97475
9.18292
9.38557
9.58363
9.77697
9.96475
10.1472
10.3243
10.4961
10.6627
10.8243
10.981
11.1331
11.281
11.4265
11.5676
11.7197
11.833
-6.64927
-6.65191
-6.6556
-6.6584
-6.66026
-6.66169
-6.66303
-6.66448
-6.66617
-6.6682
-6.67063
-6.67351
-6.67689
-6.68079
-6.68523
-6.69026
-6.69587
-6.7021
-6.70894
-6.71641
-6.72452
-6.73327
-6.74267
-6.7527
-6.76338
-6.7747
-6.78666
-6.79924
-6.81246
-6.8263
-6.84076
-6.85583
-6.87152
-6.88781
-6.90469
-6.92217
-6.94023
-6.95888
-6.9781
-6.99788
-7.01822
-7.0391
-7.06052
-7.08245
-7.1049
-7.12782
-7.1512
-7.17502
-7.19923
-7.22381
-7.24873
-7.27394
-7.2994
-7.32508
-7.35091
-7.37685
-7.40283
-7.42878
-7.45464
-7.48033
-7.50576
-7.53084
-7.55549
-7.5796
-7.60306
-7.62575
-7.64757
-7.66838
-7.68806
-7.70645
-7.72343
-7.73883
-7.7525
-7.76428
-7.77399
-7.78146
-7.7865
-7.78893
-7.78853
-7.78512
-7.77847
-7.76838
-7.7546
-7.73691
-7.71507
-7.68884
-7.65796
-7.62219
-7.58126
-7.53492
-7.48291
-7.42498
-7.36088
-7.29037
-7.21323
-7.12924
-7.03822
-6.94
-6.83446
-6.72122
-6.60003
-6.47096
-6.334
-6.18916
-6.03647
-5.87596
-5.7077
-5.53177
-5.34824
-5.15723
-4.95885
-4.75325
-4.54058
-4.32101
-4.09473
-3.86194
-3.62286
-3.37773
-3.12678
-2.87029
-2.60854
-2.34182
-2.07042
-1.79468
-1.5149
-1.23143
-0.944591
-0.654731
-0.362196
-0.067342
0.229471
0.527883
0.827534
1.12807
1.42914
1.73041
2.03153
2.33216
2.63195
2.93059
3.22779
3.52326
3.81668
4.10776
4.39625
4.68194
4.96458
5.24387
5.51967
5.79185
6.06012
6.32425
6.58438
6.84015
7.09134
7.33835
7.58064
7.81824
8.05123
8.27927
8.50257
8.72086
8.93429
9.14282
9.34599
9.54438
9.73788
9.92597
10.1088
10.2863
10.4585
10.6256
10.7877
10.9448
11.0975
11.2457
11.3913
11.531
11.6811
11.7829
-6.6458
-6.649
-6.65355
-6.65719
-6.65977
-6.66184
-6.66377
-6.66577
-6.66797
-6.67047
-6.67335
-6.67665
-6.68042
-6.68467
-6.68943
-6.69473
-6.70058
-6.70699
-6.71398
-6.72156
-6.72973
-6.7385
-6.74787
-6.75785
-6.76844
-6.77964
-6.79144
-6.80385
-6.81687
-6.83049
-6.84471
-6.85953
-6.87495
-6.89096
-6.90756
-6.92475
-6.94252
-6.96086
-6.97978
-6.99926
-7.01931
-7.0399
-7.06104
-7.0827
-7.10487
-7.12754
-7.15067
-7.17425
-7.19824
-7.22261
-7.24734
-7.27237
-7.29768
-7.32321
-7.34891
-7.37473
-7.4006
-7.42647
-7.45226
-7.47788
-7.50327
-7.52833
-7.55296
-7.57707
-7.60055
-7.62328
-7.64515
-7.66603
-7.68579
-7.70429
-7.72139
-7.73694
-7.75079
-7.76276
-7.7727
-7.78042
-7.78575
-7.78849
-7.78844
-7.78541
-7.77918
-7.76953
-7.75625
-7.73909
-7.71781
-7.69218
-7.66194
-7.62684
-7.58661
-7.54099
-7.48973
-7.43257
-7.36925
-7.29954
-7.2232
-7.14001
-7.04978
-6.95237
-6.84758
-6.73494
-6.61431
-6.48583
-6.3495
-6.20531
-6.05327
-5.89344
-5.72586
-5.55062
-5.36778
-5.17747
-4.9798
-4.7749
-4.56293
-4.34406
-4.11847
-3.88637
-3.64797
-3.4035
-3.15321
-2.89737
-2.63624
-2.37014
-2.09934
-1.82418
-1.54497
-1.26204
-0.975734
-0.686375
-0.394313
-0.0999086
0.196479
0.494489
0.793762
1.09394
1.39469
1.69568
1.99655
2.29694
2.59653
2.89497
3.19203
3.4874
3.78073
4.07173
4.36017
4.64589
4.92857
5.20785
5.48369
5.75604
6.02442
6.28862
6.54902
6.80521
7.05676
7.30401
7.5466
7.78451
8.01777
8.24613
8.46972
8.68833
8.90204
9.11081
9.31432
9.51291
9.7065
9.89478
10.0778
10.2556
10.4281
10.5955
10.7578
10.9152
11.068
11.2161
11.3614
11.4991
11.6468
11.7382
-6.64499
-6.64853
-6.65361
-6.65785
-6.66102
-6.66365
-6.66611
-6.6686
-6.67128
-6.67423
-6.67752
-6.68122
-6.68534
-6.68993
-6.69499
-6.70055
-6.70663
-6.71323
-6.72037
-6.72806
-6.7363
-6.74511
-6.75448
-6.76443
-6.77496
-6.78607
-6.79775
-6.81003
-6.82288
-6.83633
-6.85036
-6.86497
-6.88017
-6.89596
-6.91233
-6.92929
-6.94683
-6.96494
-6.98364
-7.0029
-7.02273
-7.04311
-7.06404
-7.08551
-7.1075
-7.12999
-7.15296
-7.17638
-7.20024
-7.22449
-7.24911
-7.27406
-7.29929
-7.32475
-7.35041
-7.37619
-7.40205
-7.42791
-7.4537
-7.47935
-7.50477
-7.52987
-7.55456
-7.57874
-7.6023
-7.62513
-7.6471
-7.66811
-7.688
-7.70665
-7.72392
-7.73966
-7.7537
-7.7659
-7.77607
-7.78406
-7.78966
-7.79271
-7.793
-7.79033
-7.78448
-7.77525
-7.76241
-7.74572
-7.72494
-7.69983
-7.67014
-7.6356
-7.59595
-7.55093
-7.50027
-7.44371
-7.38099
-7.31186
-7.2361
-7.15347
-7.06381
-6.96694
-6.8625
-6.75006
-6.62969
-6.50152
-6.36551
-6.22165
-6.06997
-5.9105
-5.7433
-5.56844
-5.386
-5.19609
-4.99882
-4.79433
-4.58277
-4.36432
-4.13915
-3.90746
-3.66948
-3.42542
-3.17554
-2.92009
-2.65936
-2.39364
-2.12324
-1.84845
-1.56961
-1.28705
-1.00109
-0.712068
-0.420323
-0.126224
0.169869
0.467594
0.766594
1.06651
1.36702
1.6678
1.96847
2.26868
2.56809
2.86635
3.16328
3.45858
3.75182
4.0427
4.33104
4.61676
4.89948
5.17868
5.4545
5.72702
5.99563
6.26005
6.52055
6.77684
7.02859
7.27597
7.51873
7.75683
7.99024
8.21881
8.44257
8.66139
8.87527
9.08418
9.2879
9.48663
9.6803
9.8687
10.0519
10.2298
10.4025
10.5701
10.7326
10.8901
11.0429
11.1906
11.3351
11.4707
11.6161
11.6982
-6.64691
-6.65058
-6.65591
-6.66052
-6.6641
-6.66716
-6.67004
-6.67295
-6.67601
-6.67933
-6.68297
-6.68699
-6.69142
-6.69628
-6.70159
-6.70737
-6.71364
-6.7204
-6.72766
-6.73544
-6.74375
-6.75258
-6.76196
-6.77189
-6.78236
-6.7934
-6.80499
-6.81715
-6.82988
-6.84318
-6.85706
-6.87151
-6.88654
-6.90216
-6.91836
-6.93514
-6.95251
-6.97046
-6.98899
-7.0081
-7.02778
-7.04802
-7.06882
-7.09017
-7.11205
-7.13444
-7.15733
-7.18068
-7.20448
-7.22869
-7.25328
-7.27821
-7.30344
-7.32892
-7.3546
-7.38043
-7.40634
-7.43226
-7.45813
-7.48386
-7.50938
-7.53458
-7.55939
-7.58369
-7.60738
-7.63035
-7.65247
-7.67363
-7.6937
-7.71253
-7.72998
-7.74592
-7.76017
-7.77259
-7.78301
-7.79125
-7.79713
-7.80046
-7.80106
-7.79872
-7.79323
-7.78437
-7.77191
-7.75563
-7.73528
-7.71062
-7.68138
-7.64731
-7.60813
-7.56358
-7.51339
-7.45728
-7.395
-7.3263
-7.25092
-7.16866
-7.07934
-6.98276
-6.87828
-6.76572
-6.64539
-6.51728
-6.38135
-6.2376
-6.08603
-5.92669
-5.75963
-5.58493
-5.40265
-5.21291
-5.01582
-4.81152
-4.60016
-4.38191
-4.15695
-3.92548
-3.68772
-3.44388
-3.19422
-2.93899
-2.67848
-2.41299
-2.14281
-1.86825
-1.58964
-1.30731
-1.02159
-0.732785
-0.441245
-0.147351
0.148537
0.446057
0.744851
1.04455
1.34487
1.6455
1.94602
2.24608
2.54532
2.84336
3.14017
3.43544
3.72859
4.01931
4.3075
4.59324
4.87604
5.15533
5.43122
5.70369
5.9723
6.23683
6.49735
6.75365
7.0055
7.25294
7.49579
7.73399
7.96749
8.19617
8.42003
8.63895
8.85293
9.06192
9.26577
9.46458
9.6583
9.8468
10.0301
10.2081
10.381
10.5486
10.7112
10.8686
11.0212
11.1684
11.3119
11.4454
11.5886
11.6626
-6.65133
-6.65497
-6.6603
-6.66505
-6.66888
-6.67223
-6.67541
-6.67862
-6.68197
-6.68556
-6.68946
-6.69372
-6.69837
-6.70342
-6.70891
-6.71485
-6.72124
-6.72811
-6.73546
-6.74329
-6.75163
-6.76048
-6.76985
-6.77974
-6.79017
-6.80114
-6.81265
-6.82472
-6.83734
-6.85053
-6.86428
-6.87861
-6.89352
-6.90901
-6.92508
-6.94175
-6.959
-6.97684
-6.99526
-7.01428
-7.03387
-7.05405
-7.07479
-7.09608
-7.11792
-7.14028
-7.16315
-7.18651
-7.21032
-7.23456
-7.25919
-7.28417
-7.30947
-7.33502
-7.3608
-7.38672
-7.41274
-7.43879
-7.46478
-7.49065
-7.51631
-7.54166
-7.56662
-7.59108
-7.61493
-7.63807
-7.66036
-7.6817
-7.70194
-7.72096
-7.73861
-7.75474
-7.7692
-7.78183
-7.79246
-7.80093
-7.80706
-7.81065
-7.81152
-7.80946
-7.80426
-7.79572
-7.78359
-7.76766
-7.74766
-7.72336
-7.69449
-7.66079
-7.62198
-7.57779
-7.52795
-7.47216
-7.41018
-7.34173
-7.26657
-7.18451
-7.09535
-6.99865
-6.89382
-6.78101
-6.66052
-6.53228
-6.39625
-6.25241
-6.10077
-5.94139
-5.77429
-5.59957
-5.41728
-5.22755
-5.03048
-4.82621
-4.61489
-4.39669
-4.17179
-3.9404
-3.70272
-3.45896
-3.20938
-2.95425
-2.69385
-2.42847
-2.15841
-1.88398
-1.60552
-1.32333
-1.03778
-0.749117
-0.457704
-0.163951
0.131786
0.429146
0.727767
1.02726
1.3274
1.62793
1.92834
2.22825
2.52732
2.82509
3.12178
3.41707
3.71015
4.00085
4.28904
4.57465
4.85731
5.1366
5.41249
5.68486
5.95342
6.21795
6.47845
6.73472
6.98659
7.23404
7.47691
7.71514
7.94867
8.17739
8.40128
8.62025
8.83428
9.0433
9.24721
9.44606
9.63981
9.82835
10.0117
10.1898
10.3627
10.5304
10.6929
10.8502
11.0025
11.149
11.2914
11.4228
11.564
11.6309
-6.65782
-6.6613
-6.66644
-6.67116
-6.67509
-6.67859
-6.68195
-6.68534
-6.68887
-6.69264
-6.6967
-6.7011
-6.70588
-6.71105
-6.71663
-6.72265
-6.72911
-6.73602
-6.7434
-6.75125
-6.75958
-6.76842
-6.77775
-6.7876
-6.79797
-6.80887
-6.8203
-6.83229
-6.84482
-6.85792
-6.87159
-6.88582
-6.90064
-6.91605
-6.93204
-6.94863
-6.96582
-6.9836
-7.00198
-7.02096
-7.04053
-7.06069
-7.08143
-7.10273
-7.12459
-7.14699
-7.16991
-7.19333
-7.21722
-7.24154
-7.26627
-7.29136
-7.31678
-7.34247
-7.36838
-7.39445
-7.42062
-7.44683
-7.47299
-7.49902
-7.52485
-7.55037
-7.5755
-7.60013
-7.62416
-7.64746
-7.66993
-7.69143
-7.71184
-7.73102
-7.74884
-7.76513
-7.77977
-7.79257
-7.80338
-7.81204
-7.81835
-7.82215
-7.82322
-7.82139
-7.81643
-7.80813
-7.79626
-7.78059
-7.76086
-7.73684
-7.70825
-7.67482
-7.63628
-7.59234
-7.54272
-7.48714
-7.42531
-7.35698
-7.2819
-7.19989
-7.11067
-7.01338
-6.90791
-6.7948
-6.67404
-6.54555
-6.40928
-6.26522
-6.11339
-5.95383
-5.78658
-5.6117
-5.4293
-5.23946
-5.04229
-4.83794
-4.62656
-4.40831
-4.18338
-3.95197
-3.71429
-3.47054
-3.22096
-2.96584
-2.70547
-2.44014
-2.17015
-1.8958
-1.61743
-1.33536
-1.04995
-0.761405
-0.470065
-0.176418
0.119188
0.416402
0.714856
1.01411
1.31405
1.61449
1.91481
2.21458
2.51354
2.8113
3.10784
3.40287
3.69581
3.98644
4.27455
4.56001
4.8425
5.12171
5.39751
5.66977
5.93822
6.2027
6.46312
6.71932
6.97114
7.21854
7.46137
7.69957
7.93307
8.16178
8.38566
8.60463
8.81864
9.02766
9.23159
9.43045
9.62419
9.81274
9.9961
10.1742
10.3471
10.5148
10.6772
10.8343
10.9862
11.132
11.2732
11.4026
11.5418
11.6029
-6.6659
-6.66912
-6.67394
-6.67848
-6.68237
-6.68591
-6.68933
-6.6928
-6.69641
-6.70024
-6.70437
-6.70882
-6.71363
-6.71883
-6.72443
-6.73045
-6.7369
-6.74379
-6.75114
-6.75896
-6.76725
-6.77603
-6.78531
-6.79509
-6.8054
-6.81622
-6.82759
-6.8395
-6.85196
-6.86499
-6.87859
-6.89277
-6.90753
-6.92289
-6.93884
-6.9554
-6.97257
-6.99035
-7.00873
-7.02773
-7.04733
-7.06753
-7.08832
-7.10969
-7.13163
-7.15413
-7.17715
-7.20068
-7.22469
-7.24915
-7.27402
-7.29926
-7.32484
-7.35069
-7.37677
-7.40302
-7.42936
-7.45574
-7.48208
-7.50829
-7.53428
-7.55997
-7.58526
-7.61005
-7.63422
-7.65767
-7.68027
-7.7019
-7.72244
-7.74174
-7.75967
-7.77608
-7.79082
-7.80373
-7.81465
-7.82342
-7.82985
-7.83376
-7.83497
-7.83327
-7.82846
-7.82032
-7.80862
-7.79311
-7.77357
-7.74973
-7.72132
-7.68807
-7.64969
-7.60589
-7.55638
-7.50088
-7.43908
-7.37074
-7.29564
-7.21354
-7.12364
-7.02545
-6.91947
-6.80597
-6.68484
-6.55601
-6.41942
-6.27506
-6.12294
-5.96312
-5.79564
-5.62055
-5.43795
-5.24794
-5.05062
-4.84613
-4.63463
-4.41628
-4.19127
-3.9598
-3.7221
-3.47832
-3.22869
-2.97355
-2.71319
-2.44789
-2.17794
-1.90366
-1.62537
-1.34341
-1.0582
-0.769817
-0.478536
-0.184992
0.110479
0.407548
0.705862
1.00503
1.30484
1.60503
1.90512
2.20472
2.50352
2.80118
3.09755
3.39233
3.68507
3.97554
4.2635
4.54877
4.83107
5.11013
5.38578
5.65787
5.92617
6.19052
6.45081
6.70688
6.9586
7.2059
7.44864
7.68676
7.92018
8.14883
8.37264
8.59156
8.80553
9.01451
9.21842
9.41726
9.61098
9.79952
9.98287
10.161
10.3339
10.5015
10.6637
10.8206
10.9719
11.117
11.2571
11.3846
11.5219
11.5781
-6.67506
-6.67797
-6.68237
-6.68663
-6.69037
-6.69383
-6.69721
-6.70065
-6.70423
-6.70804
-6.71213
-6.71654
-6.7213
-6.72644
-6.73198
-6.73792
-6.7443
-6.75111
-6.75838
-6.76612
-6.77432
-6.78302
-6.79222
-6.80192
-6.81214
-6.8229
-6.83419
-6.84604
-6.85844
-6.87142
-6.88498
-6.89912
-6.91387
-6.92921
-6.94517
-6.96175
-6.97894
-6.99675
-7.01519
-7.03425
-7.05393
-7.07422
-7.09511
-7.11659
-7.13866
-7.16128
-7.18445
-7.20813
-7.23229
-7.25692
-7.28196
-7.30737
-7.33312
-7.35915
-7.3854
-7.41182
-7.43833
-7.46487
-7.49136
-7.51771
-7.54385
-7.56966
-7.59507
-7.61996
-7.64422
-7.66774
-7.69041
-7.7121
-7.73268
-7.75201
-7.76997
-7.7864
-7.80115
-7.81407
-7.825
-7.83378
-7.84022
-7.84416
-7.84539
-7.84373
-7.83896
-7.83087
-7.81923
-7.80379
-7.78432
-7.76056
-7.73222
-7.69904
-7.66072
-7.61696
-7.56746
-7.51191
-7.45004
-7.38161
-7.30635
-7.22362
-7.1326
-7.03357
-6.92714
-6.81322
-6.69169
-6.56248
-6.42555
-6.28083
-6.12839
-5.96828
-5.80054
-5.62522
-5.44241
-5.2522
-5.05471
-4.85007
-4.63845
-4.41999
-4.1949
-3.96338
-3.72568
-3.48194
-3.23229
-2.97714
-2.7168
-2.45155
-2.18167
-1.90747
-1.62928
-1.34741
-1.06225
-0.774014
-0.482972
-0.189628
0.105661
0.402547
0.700682
0.999705
1.29933
1.59926
1.89909
2.19845
2.49702
2.79448
3.09061
3.3851
3.67759
3.96782
4.25556
4.54058
4.82263
5.10147
5.3769
5.64877
5.91686
6.18102
6.44112
6.69702
6.94858
7.19571
7.43832
7.6763
7.90961
8.13814
8.36186
8.58069
8.79458
9.00349
9.20735
9.40614
9.59982
9.78834
9.97166
10.1497
10.3226
10.4901
10.6521
10.8087
10.9595
11.1038
11.2427
11.3685
11.504
11.5563
-6.68485
-6.68742
-6.69135
-6.69524
-6.69874
-6.70203
-6.70527
-6.70858
-6.71204
-6.71572
-6.71968
-6.72395
-6.72857
-6.73357
-6.73896
-6.74477
-6.75101
-6.75769
-6.76482
-6.77243
-6.78052
-6.78911
-6.7982
-6.80781
-6.81794
-6.82862
-6.83985
-6.85165
-6.86401
-6.87696
-6.89051
-6.90465
-6.9194
-6.93478
-6.95077
-6.9674
-6.98465
-7.00255
-7.02108
-7.04024
-7.06003
-7.08044
-7.10147
-7.12309
-7.14531
-7.16808
-7.19141
-7.21525
-7.23958
-7.26436
-7.28956
-7.31514
-7.34104
-7.36721
-7.3936
-7.42014
-7.44677
-7.47341
-7.49999
-7.52642
-7.55261
-7.57846
-7.60388
-7.62877
-7.65302
-7.67651
-7.69913
-7.72075
-7.74125
-7.7605
-7.77835
-7.79467
-7.80931
-7.82211
-7.83292
-7.84158
-7.84791
-7.85174
-7.85287
-7.85112
-7.84629
-7.83814
-7.82644
-7.81095
-7.79144
-7.76764
-7.73929
-7.70607
-7.66771
-7.62387
-7.57427
-7.5186
-7.45661
-7.38798
-7.31211
-7.22802
-7.13585
-7.03636
-6.92952
-6.81518
-6.69326
-6.5637
-6.42649
-6.28151
-6.12877
-5.9684
-5.80042
-5.62489
-5.44189
-5.25152
-5.05389
-4.84914
-4.63741
-4.41889
-4.19374
-3.96219
-3.72445
-3.48072
-3.23117
-2.97612
-2.71587
-2.45072
-2.18096
-1.90689
-1.62884
-1.34713
-1.06211
-0.774048
-0.483266
-0.190181
0.10485
0.401474
0.699344
0.998108
1.29746
1.59707
1.89657
2.19561
2.49386
2.79102
3.08682
3.38097
3.67314
3.96306
4.25048
4.53518
4.81692
5.09546
5.37061
5.64219
5.91001
6.17391
6.43376
6.68942
6.94076
7.18769
7.4301
7.66791
7.90105
8.12943
8.35301
8.57172
8.78551
8.99433
9.19811
9.39684
9.59047
9.77894
9.96222
10.1403
10.313
10.4804
10.6423
10.7984
10.9487
11.0922
11.2299
11.3542
11.4879
11.5374
-6.69491
-6.69713
-6.70057
-6.70404
-6.70722
-6.71024
-6.71323
-6.7163
-6.71953
-6.72299
-6.72672
-6.73076
-6.73516
-6.73993
-6.74511
-6.75071
-6.75675
-6.76324
-6.77021
-6.77765
-6.7856
-6.79405
-6.80303
-6.81254
-6.82259
-6.8332
-6.84438
-6.85613
-6.86848
-6.88142
-6.89497
-6.90914
-6.92394
-6.93936
-6.95543
-6.97214
-6.98949
-7.00749
-7.02613
-7.04542
-7.06534
-7.08589
-7.10705
-7.12882
-7.15118
-7.17409
-7.19755
-7.22152
-7.24598
-7.27088
-7.29618
-7.32184
-7.34782
-7.37405
-7.40048
-7.42704
-7.45367
-7.48029
-7.50683
-7.5332
-7.5593
-7.58504
-7.61032
-7.63505
-7.65911
-7.68241
-7.70481
-7.72621
-7.74647
-7.76546
-7.78305
-7.7991
-7.81346
-7.82599
-7.83653
-7.84493
-7.851
-7.85458
-7.85549
-7.85353
-7.84851
-7.84021
-7.82838
-7.81276
-7.79312
-7.76922
-7.74075
-7.70743
-7.66894
-7.62497
-7.57521
-7.51943
-7.45725
-7.38791
-7.31044
-7.22502
-7.1324
-7.03256
-6.92534
-6.81065
-6.68839
-6.55852
-6.42101
-6.27582
-6.12291
-5.96236
-5.79421
-5.61854
-5.43542
-5.24495
-5.04725
-4.84245
-4.63071
-4.41218
-4.18706
-3.95555
-3.71785
-3.47419
-3.22478
-2.96989
-2.70983
-2.44487
-2.17533
-1.90149
-1.6237
-1.34225
-1.05749
-0.769729
-0.479291
-0.186559
0.108111
0.404367
0.701862
1.00025
1.29921
1.59841
1.89749
2.1961
2.49395
2.7907
3.08608
3.3798
3.67155
3.96106
4.24808
4.53239
4.81373
5.09189
5.36667
5.6379
5.90538
6.16896
6.4285
6.68386
6.93493
7.18159
7.42376
7.66135
7.89428
8.12248
8.34589
8.56445
8.77811
8.98682
9.19052
9.38917
9.58273
9.77116
9.95439
10.1324
10.305
10.4723
10.6339
10.7897
10.9395
11.0822
11.2188
11.3418
11.4736
11.5211
-6.70498
-6.70687
-6.70983
-6.71284
-6.71562
-6.71826
-6.72089
-6.72361
-6.72649
-6.7296
-6.73299
-6.7367
-6.74078
-6.74526
-6.75015
-6.75548
-6.76127
-6.76754
-6.7743
-6.78156
-6.78935
-6.79766
-6.80651
-6.81592
-6.8259
-6.83645
-6.84759
-6.85933
-6.87167
-6.88463
-6.89821
-6.91243
-6.92728
-6.94278
-6.95893
-6.97573
-6.99318
-7.01129
-7.03004
-7.04943
-7.06946
-7.09011
-7.11137
-7.13323
-7.15565
-7.17862
-7.20213
-7.22612
-7.25058
-7.27546
-7.30073
-7.32633
-7.35221
-7.37833
-7.40462
-7.43101
-7.45745
-7.48385
-7.51015
-7.53625
-7.56208
-7.58752
-7.61246
-7.63683
-7.66052
-7.68343
-7.70543
-7.72642
-7.74625
-7.76482
-7.78198
-7.7976
-7.81154
-7.82366
-7.83379
-7.84179
-7.84749
-7.85072
-7.85129
-7.84902
-7.8437
-7.83513
-7.82308
-7.80727
-7.78746
-7.76338
-7.73475
-7.70126
-7.66261
-7.61849
-7.56858
-7.51259
-7.44945
-7.37822
-7.29946
-7.21366
-7.12078
-7.02065
-6.91315
-6.79819
-6.6757
-6.54562
-6.40791
-6.26256
-6.10954
-5.94891
-5.78071
-5.60501
-5.42189
-5.23145
-5.0338
-4.82907
-4.61743
-4.39903
-4.17406
-3.94272
-3.70522
-3.46177
-3.21262
-2.95803
-2.69827
-2.43365
-2.16446
-1.891
-1.61358
-1.33254
-1.0482
-0.760876
-0.470907
-0.178657
0.115522
0.411279
0.708269
1.00615
1.30459
1.60325
1.90179
2.19987
2.49718
2.79341
3.08826
3.38145
3.67268
3.96168
4.2482
4.53202
4.81288
5.09058
5.36492
5.63571
5.90278
6.16596
6.42513
6.68014
6.93087
7.17723
7.41911
7.65644
7.88912
8.11711
8.34032
8.55871
8.77222
8.9808
9.18439
9.38297
9.57647
9.76484
9.94802
10.1259
10.2985
10.4656
10.627
10.7825
10.9317
11.0737
11.2093
11.331
11.4611
11.5075
-6.71496
-6.71657
-6.71907
-6.72159
-6.72386
-6.726
-6.72812
-6.73032
-6.7327
-6.73533
-6.73825
-6.74153
-6.7452
-6.7493
-6.75384
-6.75885
-6.76436
-6.77037
-6.77691
-6.78397
-6.79159
-6.79976
-6.80849
-6.81781
-6.82772
-6.83822
-6.84933
-6.86106
-6.87341
-6.88638
-6.9
-6.91426
-6.92916
-6.94471
-6.96091
-6.97776
-6.99526
-7.0134
-7.03218
-7.05159
-7.07162
-7.09225
-7.11348
-7.13526
-7.15759
-7.18044
-7.20379
-7.22761
-7.25185
-7.2765
-7.30149
-7.32678
-7.35233
-7.37808
-7.40398
-7.42995
-7.45594
-7.48187
-7.50767
-7.53325
-7.55854
-7.58343
-7.60783
-7.63163
-7.65475
-7.67707
-7.69848
-7.71886
-7.73811
-7.75609
-7.77267
-7.78772
-7.80111
-7.81269
-7.82231
-7.82981
-7.83504
-7.83782
-7.83798
-7.83533
-7.82966
-7.82076
-7.80841
-7.79234
-7.7723
-7.74801
-7.71917
-7.68553
-7.64677
-7.60256
-7.55229
-7.49459
-7.42935
-7.35726
-7.27831
-7.1924
-7.09937
-6.99909
-6.89147
-6.7764
-6.65383
-6.52369
-6.38596
-6.24061
-6.08764
-5.92709