/*--------------------------------*- C++ -*----------------------------------*\
| =========                 |                                                 |
| \\      /  F ield         | OpenFOAM Extend Project: Open source CFD        |
|  \\    /   O peration     | Version:  1.6-ext                               |
|   \\  /    A nd           | Web:      www.extend-project.de                 |
|    \\/     M anipulation  |                                                 |
\*---------------------------------------------------------------------------*/
FoamFile
{
    version     2.0;
    format      ascii;
    class       volVectorField;
    location    "2000";
    object      U;
}
// * * * * * * * * * * * * * * * * * * * * * * * * * * * * * * * * * * * * * //

dimensions      [0 1 -1 0 0 0 0];

internalField   nonuniform List<vector> 
12225
(
(9.85637 -1.15044 0)
(9.76805 -0.615586 0)
(9.57963 -0.355723 0)
(9.38069 -0.209968 0)
(9.19744 -0.124279 0)
(9.0297 -0.0723952 0)
(8.87585 -0.0401668 0)
(8.73524 -0.0198058 0)
(8.60714 -0.00683686 0)
(8.4906 0.00142915 0)
(8.38462 0.00665819 0)
(8.28827 0.00990298 0)
(8.20069 0.0118375 0)
(8.12113 0.012896 0)
(8.04891 0.0133596 0)
(7.98352 0.013442 0)
(7.92333 0.0135937 0)
(7.87455 -0.000233759 0)
(10.0202 0.393569 0)
(10.0067 0.342777 0)
(9.97176 0.251175 0)
(9.92811 0.187809 0)
(9.88527 0.144186 0)
(9.84204 0.11364 0)
(9.79758 0.0922578 0)
(9.7524 0.077124 0)
(9.70715 0.0661793 0)
(9.66231 0.0580596 0)
(9.61823 0.0518701 0)
(9.57524 0.0470143 0)
(9.53361 0.0430844 0)
(9.49359 0.0397916 0)
(9.45544 0.0369192 0)
(9.41952 0.0343274 0)
(9.38685 0.03198 0)
(9.35822 0.0321435 0)
(9.99275 0.031487 0)
(10.0021 0.0117253 0)
(10.0133 0.00348263 0)
(10.0135 0.0115789 0)
(10.0092 0.0212201 0)
(10.0017 0.028655 0)
(9.99128 0.0340626 0)
(9.97866 0.0378547 0)
(9.96457 0.0403592 0)
(9.94946 0.0418741 0)
(9.93367 0.0426483 0)
(9.91749 0.0428671 0)
(9.90117 0.0426544 0)
(9.88495 0.0420782 0)
(9.86909 0.0411484 0)
(9.8539 0.0397967 0)
(9.84002 0.0376858 0)
(9.82628 0.0329032 0)
(9.99914 0.0194445 0)
(10.0105 0.0411236 0)
(10.0265 0.0495891 0)
(10.034 0.0557106 0)
(10.0382 0.0586966 0)
(10.0407 0.0592011 0)
(10.0415 0.0585947 0)
(10.0409 0.0575668 0)
(10.0392 0.0563619 0)
(10.0368 0.0550777 0)
(10.0338 0.0537553 0)
(10.0304 0.052399 0)
(10.0267 0.050985 0)
(10.0228 0.0494613 0)
(10.0191 0.0477347 0)
(10.0155 0.0456291 0)
(10.0124 0.0427585 0)
(10.0086 0.0380716 0)
(10.0018 0.0175871 0)
(10.0131 0.0391211 0)
(10.0279 0.0453494 0)
(10.0371 0.048518 0)
(10.0441 0.0505894 0)
(10.0501 0.0515286 0)
(10.0551 0.0518542 0)
(10.059 0.0518772 0)
(10.0621 0.0516817 0)
(10.0647 0.0512947 0)
(10.0667 0.050733 0)
(10.0685 0.0499994 0)
(10.0699 0.0490775 0)
(10.0712 0.0479242 0)
(10.0725 0.0464552 0)
(10.0737 0.0445134 0)
(10.0749 0.0418229 0)
(10.0753 0.0378555 0)
(10.0023 0.0183332 0)
(10.0124 0.0360806 0)
(10.0256 0.0423509 0)
(10.0354 0.0458073 0)
(10.0435 0.0483936 0)
(10.0508 0.0498893 0)
(10.0573 0.0506097 0)
(10.063 0.0508685 0)
(10.068 0.0508036 0)
(10.0726 0.0504799 0)
(10.0768 0.0499358 0)
(10.0807 0.0491866 0)
(10.0844 0.0482227 0)
(10.0878 0.0470059 0)
(10.0912 0.0454635 0)
(10.0943 0.043475 0)
(10.0973 0.0408805 0)
(10.0995 0.0374989 0)
(10.002 0.0162387 0)
(10.0106 0.0310866 0)
(10.0223 0.0380255 0)
(10.0321 0.0420542 0)
(10.0405 0.0449371 0)
(10.0482 0.0466954 0)
(10.0553 0.0476221 0)
(10.0617 0.0480299 0)
(10.0676 0.0480783 0)
(10.0731 0.0478432 0)
(10.0782 0.0473659 0)
(10.0831 0.0466632 0)
(10.0877 0.0457276 0)
(10.0921 0.0445283 0)
(10.0963 0.0430106 0)
(10.1003 0.041097 0)
(10.1039 0.0387144 0)
(10.107 0.0358446 0)
(10.0018 0.0143579 0)
(10.0091 0.0275264 0)
(10.0195 0.0347373 0)
(10.0289 0.0390057 0)
(10.0371 0.0419662 0)
(10.0449 0.043835 0)
(10.0521 0.0448816 0)
(10.0587 0.0453876 0)
(10.0649 0.045511 0)
(10.0707 0.0453308 0)
(10.0762 0.0448906 0)
(10.0814 0.0442101 0)
(10.0864 0.0432874 0)
(10.0911 0.0421015 0)
(10.0957 0.0406165 0)
(10.0999 0.0387888 0)
(10.1037 0.0365949 0)
(10.1071 0.0340814 0)
(10.0016 0.0128272 0)
(10.008 0.0246557 0)
(10.0172 0.0317678 0)
(10.026 0.0361213 0)
(10.034 0.039121 0)
(10.0416 0.041064 0)
(10.0487 0.0421995 0)
(10.0554 0.0427805 0)
(10.0617 0.0429604 0)
(10.0676 0.0428209 0)
(10.0733 0.0424088 0)
(10.0787 0.0417474 0)
(10.0838 0.0408406 0)
(10.0887 0.0396773 0)
(10.0933 0.0382372 0)
(10.0976 0.0365009 0)
(10.1015 0.0344729 0)
(10.1051 0.0322262 0)
(10.0014 0.0113271 0)
(10.0068 0.0217961 0)
(10.0149 0.0285998 0)
(10.023 0.0329388 0)
(10.0306 0.0359327 0)
(10.0379 0.037913 0)
(10.0449 0.0391101 0)
(10.0515 0.0397472 0)
(10.0578 0.0399706 0)
(10.0637 0.0398637 0)
(10.0694 0.0394759 0)
(10.0748 0.0388343 0)
(10.0799 0.0379495 0)
(10.0848 0.0368205 0)
(10.0895 0.0354421 0)
(10.0938 0.0338145 0)
(10.0977 0.0319595 0)
(10.1013 0.0299589 0)
(10.0012 0.00983219 0)
(10.0058 0.0189416 0)
(10.0127 0.0252786 0)
(10.02 0.0294921 0)
(10.0272 0.0324154 0)
(10.0341 0.0343816 0)
(10.0408 0.035602 0)
(10.0472 0.0362695 0)
(10.0533 0.0365196 0)
(10.0592 0.0364353 0)
(10.0648 0.0360676 0)
(10.0701 0.0354475 0)
(10.0752 0.0345922 0)
(10.08 0.0335106 0)
(10.0846 0.0322103 0)
(10.0888 0.0307053 0)
(10.0927 0.0290269 0)
(10.0963 0.027253 0)
(10.001 0.00835484 0)
(10.0048 0.0161302 0)
(10.0107 0.0218547 0)
(10.0173 0.0258173 0)
(10.0239 0.0285934 0)
(10.0304 0.0304862 0)
(10.0367 0.0316846 0)
(10.0428 0.0323515 0)
(10.0487 0.0326085 0)
(10.0544 0.0325349 0)
(10.0598 0.0321828 0)
(10.065 0.0315862 0)
(10.0699 0.0307684 0)
(10.0746 0.0297465 0)
(10.079 0.0285375 0)
(10.0831 0.0271639 0)
(10.0869 0.0256599 0)
(10.0905 0.0240931 0)
(10.0009 0.0069114 0)
(10.004 0.0133832 0)
(10.009 0.0183663 0)
(10.0148 0.0219463 0)
(10.0208 0.0244883 0)
(10.0268 0.0262403 0)
(10.0327 0.0273644 0)
(10.0385 0.0279945 0)
(10.0442 0.028235 0)
(10.0496 0.0281592 0)
(10.0548 0.0278179 0)
(10.0597 0.0272473 0)
(10.0645 0.0264747 0)
(10.0689 0.025523 0)
(10.0732 0.0244149 0)
(10.0771 0.0231764 0)
(10.0807 0.0218402 0)
(10.0842 0.0204624 0)
(10.0007 0.0055095 0)
(10.0034 0.0107038 0)
(10.0076 0.0148412 0)
(10.0127 0.0179103 0)
(10.018 0.0201214 0)
(10.0236 0.0216569 0)
(10.0291 0.0226468 0)
(10.0345 0.0231972 0)
(10.0398 0.0233934 0)
(10.0449 0.0232997 0)
(10.0499 0.0229633 0)
(10.0546 0.0224199 0)
(10.0591 0.0216987 0)
(10.0633 0.020825 0)
(10.0674 0.0198234 0)
(10.0711 0.0187199 0)
(10.0746 0.0175434 0)
(10.078 0.016339 0)
(10.0006 0.00414645 0)
(10.0028 0.00808016 0)
(10.0064 0.0112898 0)
(10.0108 0.0137297 0)
(10.0157 0.0155079 0)
(10.0207 0.0167441 0)
(10.0258 0.0175334 0)
(10.0309 0.0179545 0)
(10.0358 0.0180731 0)
(10.0407 0.0179412 0)
(10.0453 0.0175995 0)
(10.0498 0.0170809 0)
(10.0541 0.0164128 0)
(10.0581 0.0156199 0)
(10.0619 0.0147257 0)
(10.0655 0.0137533 0)
(10.0689 0.0127269 0)
(10.0721 0.0116821 0)
(10.0005 0.00280686 0)
(10.0024 0.00548046 0)
(10.0055 0.00769248 0)
(10.0094 0.00939636 0)
(10.0138 0.0106397 0)
(10.0183 0.0114903 0)
(10.0231 0.0120084 0)
(10.0278 0.0122461 0)
(10.0324 0.0122484 0)
(10.037 0.012053 0)
(10.0414 0.0116911 0)
(10.0456 0.0111892 0)
(10.0496 0.0105704 0)
(10.0535 0.00985572 0)
(10.0571 0.00906486 0)
(10.0605 0.0082168 0)
(10.0637 0.00733036 0)
(10.0668 0.00643332 0)
(10.0005 0.00146064 0)
(10.0021 0.00284882 0)
(10.0049 0.0039936 0)
(10.0084 0.00486401 0)
(10.0124 0.00547507 0)
(10.0166 0.00585496 0)
(10.021 0.00603136 0)
(10.0254 0.00602994 0)
(10.0298 0.0058744 0)
(10.0341 0.00558608 0)
(10.0382 0.00518399 0)
(10.0423 0.00468529 0)
(10.0461 0.00410582 0)
(10.0497 0.00346049 0)
(10.0532 0.0027633 0)
(10.0565 0.00202772 0)
(10.0596 0.00126713 0)
(10.0626 0.000502501 0)
(10.0004 0.000140138 0)
(10.002 0.000256403 0)
(10.0046 0.000319647 0)
(10.0079 0.000322572 0)
(10.0117 0.000262421 0)
(10.0157 0.000135316 0)
(10.0199 -6.14871e-05 0)
(10.0242 -0.000327929 0)
(10.0284 -0.000661618 0)
(10.0325 -0.00105854 0)
(10.0365 -0.0015134 0)
(10.0403 -0.00201989 0)
(10.044 -0.00257093 0)
(10.0475 -0.00315893 0)
(10.0509 -0.00377596 0)
(10.0541 -0.00441416 0)
(10.057 -0.00506531 0)
(10.06 -0.0057145 0)
(10.0004 -0.00107993 0)
(10.002 -0.00214713 0)
(10.0046 -0.00309602 0)
(10.008 -0.00390153 0)
(10.0118 -0.00458126 0)
(10.0158 -0.00517231 0)
(10.02 -0.00570793 0)
(10.0241 -0.00621275 0)
(10.0283 -0.00670493 0)
(10.0323 -0.00719734 0)
(10.0362 -0.00769806 0)
(10.04 -0.0082113 0)
(10.0436 -0.00873841 0)
(10.0471 -0.0092787 0)
(10.0503 -0.00983013 0)
(10.0534 -0.0103897 0)
(10.0564 -0.0109533 0)
(10.0592 -0.0115108 0)
(10.0005 -0.00220421 0)
(10.0021 -0.00437609 0)
(10.0049 -0.00625907 0)
(10.0085 -0.00778074 0)
(10.0124 -0.00898651 0)
(10.0166 -0.009959 0)
(10.0208 -0.0107643 0)
(10.0251 -0.011451 0)
(10.0292 -0.0120574 0)
(10.0333 -0.0126123 0)
(10.0372 -0.0131358 0)
(10.0409 -0.0136412 0)
(10.0445 -0.014137 0)
(10.0479 -0.0146282 0)
(10.0511 -0.0151174 0)
(10.0542 -0.0156055 0)
(10.0571 -0.0160917 0)
(10.0599 -0.0165693 0)
(10.0005 -0.00327609 0)
(10.0023 -0.00654439 0)
(10.0054 -0.00932706 0)
(10.0093 -0.0114808 0)
(10.0136 -0.0131199 0)
(10.018 -0.0143945 0)
(10.0224 -0.0154035 0)
(10.0267 -0.0162188 0)
(10.031 -0.0168989 0)
(10.0351 -0.0174876 0)
(10.039 -0.0180153 0)
(10.0428 -0.0185024 0)
(10.0463 -0.0189628 0)
(10.0497 -0.019406 0)
(10.0529 -0.0198384 0)
(10.056 -0.020264 0)
(10.0588 -0.0206853 0)
(10.0616 -0.0210992 0)
(10.0005 -0.00429724 0)
(10.0025 -0.0087279 0)
(10.0061 -0.0124033 0)
(10.0105 -0.0150871 0)
(10.0152 -0.01705 0)
(10.0198 -0.0185343 0)
(10.0245 -0.0196672 0)
(10.029 -0.0205438 0)
(10.0333 -0.0212435 0)
(10.0375 -0.0218233 0)
(10.0414 -0.0223216 0)
(10.0452 -0.0227642 0)
(10.0488 -0.0231692 0)
(10.0522 -0.0235493 0)
(10.0553 -0.0239136 0)
(10.0584 -0.0242686 0)
(10.0612 -0.0246191 0)
(10.0639 -0.0249647 0)
(10.0004 -0.0052331 0)
(10.0027 -0.0110026 0)
(10.0069 -0.0155841 0)
(10.012 -0.0186989 0)
(10.0171 -0.0209094 0)
(10.0221 -0.0225441 0)
(10.0269 -0.0237481 0)
(10.0316 -0.0246473 0)
(10.036 -0.025344 0)
(10.0402 -0.0259042 0)
(10.0442 -0.0263694 0)
(10.0479 -0.0267678 0)
(10.0515 -0.0271193 0)
(10.0548 -0.0274379 0)
(10.0579 -0.0277346 0)
(10.0609 -0.0280187 0)
(10.0636 -0.0282987 0)
(10.0663 -0.0285815 0)
(10.0002 -0.00600676 0)
(10.0026 -0.0134283 0)
(10.0077 -0.0187371 0)
(10.0136 -0.0220253 0)
(10.0191 -0.0243503 0)
(10.0243 -0.026028 0)
(10.0294 -0.0271896 0)
(10.0341 -0.0280077 0)
(10.0385 -0.0286153 0)
(10.0427 -0.0290883 0)
(10.0466 -0.0294708 0)
(10.0503 -0.0297914 0)
(10.0537 -0.0300689 0)
(10.057 -0.0303157 0)
(10.06 -0.0305412 0)
(10.0628 -0.0307535 0)
(10.0654 -0.030962 0)
(10.0678 -0.0311749 0)
(9.99977 -0.00654045 0)
(10.0022 -0.0168376 0)
(10.0085 -0.0227903 0)
(10.015 -0.0259957 0)
(10.0208 -0.0283989 0)
(10.0262 -0.0301747 0)
(10.0313 -0.0313779 0)
(10.036 -0.0321947 0)
(10.0403 -0.0327652 0)
(10.0443 -0.0331679 0)
(10.048 -0.0334537 0)
(10.0514 -0.0336588 0)
(10.0546 -0.033808 0)
(10.0575 -0.0339174 0)
(10.0602 -0.0339983 0)
(10.0627 -0.0340606 0)
(10.065 -0.0341184 0)
(10.0671 -0.0341938 0)
(9.99829 -0.00417332 0)
(10.0004 -0.0187878 0)
(10.0085 -0.0252122 0)
(10.0156 -0.0276389 0)
(10.0213 -0.0292329 0)
(10.0266 -0.0303193 0)
(10.0315 -0.0310738 0)
(10.0359 -0.0316849 0)
(10.0398 -0.0322185 0)
(10.0434 -0.0326832 0)
(10.0465 -0.0330825 0)
(10.0494 -0.0334219 0)
(10.052 -0.0337061 0)
(10.0542 -0.0339384 0)
(10.0563 -0.0341209 0)
(10.0581 -0.0342555 0)
(10.0596 -0.0343494 0)
(10.0609 -0.034413 0)
(9.99448 -0.00242873 0)
(9.9954 -0.0234542 0)
(10.0065 -0.0348359 0)
(10.0146 -0.0414115 0)
(10.02 -0.0448453 0)
(10.0246 -0.0458769 0)
(10.0284 -0.0456481 0)
(10.0315 -0.0449147 0)
(10.034 -0.044011 0)
(10.036 -0.0430812 0)
(10.0376 -0.0421951 0)
(10.0389 -0.0413825 0)
(10.0398 -0.0406494 0)
(10.0404 -0.0399887 0)
(10.0408 -0.0393852 0)
(10.0409 -0.0388179 0)
(10.0408 -0.0382696 0)
(10.0404 -0.0377188 0)
(9.98507 0.00398201 0)
(9.98375 0.0169754 0)
(9.99639 0.0235685 0)
(10.0049 0.0170852 0)
(10.01 0.00748073 0)
(10.013 -0.00102273 0)
(10.0142 -0.00801022 0)
(10.0138 -0.0136554 0)
(10.0124 -0.0181274 0)
(10.0101 -0.0216153 0)
(10.0072 -0.0243115 0)
(10.0039 -0.026383 0)
(10.0002 -0.0279634 0)
(9.99618 -0.0291547 0)
(9.99194 -0.0300297 0)
(9.98751 -0.030631 0)
(9.98293 -0.0309734 0)
(9.97786 -0.0309885 0)
(10.0101 -0.300781 0)
(10.007 -0.295488 0)
(9.9962 -0.234016 0)
(9.98061 -0.184959 0)
(9.96652 -0.148242 0)
(9.95297 -0.12041 0)
(9.93871 -0.0995611 0)
(9.92368 -0.0840017 0)
(9.90812 -0.0722955 0)
(9.89222 -0.0633799 0)
(9.87612 -0.0565033 0)
(9.85993 -0.0511308 0)
(9.84377 -0.0468761 0)
(9.82773 -0.043457 0)
(9.81188 -0.0406603 0)
(9.7963 -0.0383101 0)
(9.78109 -0.036236 0)
(9.76573 -0.0340086 0)
(9.95873 0.889466 0)
(9.96138 0.522282 0)
(9.87736 0.333069 0)
(9.77211 0.218514 0)
(9.67139 0.14545 0)
(9.57714 0.097506 0)
(9.48857 0.0651204 0)
(9.40561 0.0427233 0)
(9.32816 0.0269726 0)
(9.25594 0.0157596 0)
(9.18859 0.00770256 0)
(9.12573 0.00187449 0)
(9.06705 -0.00235813 0)
(9.01224 -0.00543481 0)
(8.96103 -0.00766283 0)
(8.91318 -0.00925225 0)
(8.86865 -0.0103263 0)
(8.82598 -0.0107736 0)
(0.0055303 -0.013606 0)
(0.0155766 -0.0165281 0)
(0.0236848 -0.0129891 0)
(0.028083 -0.0073074 0)
(0.0273661 -0.00102959 0)
(0.0220076 0.00510983 0)
(0.0129736 0.0106207 -4.26256e-19)
(0.000441916 0.0153575 4.28434e-19)
(-0.0149745 0.0189205 0)
(-0.0322206 0.0214349 3.36238e-19)
(-0.0513924 0.0234363 0)
(-0.0721955 0.0251343 0)
(-0.0944465 0.0265882 0)
(-0.11799 0.027819 -2.0532e-19)
(-0.142678 0.0288426 0)
(-0.168375 0.029677 0)
(-0.194952 0.0303421 1.5373e-19)
(-0.222292 0.0308587 0)
(-0.25029 0.0312465 0)
(-0.278855 0.031524 0)
(-0.307903 0.0317077 -1.1323e-19)
(-0.337366 0.0318122 0)
(-0.367181 0.0318502 -9.97484e-20)
(-0.397297 0.0318326 0)
(-0.427671 0.0317685 0)
(-0.458264 0.0316655 -8.45581e-20)
(-0.489048 0.0315294 0)
(-0.519996 0.0313651 7.6777e-20)
(-0.551087 0.031176 0)
(-0.582306 0.0309642 -7.03398e-20)
(-0.613639 0.0307311 0)
(-0.645073 0.0304769 0)
(-0.676601 0.0302011 0)
(-0.708215 0.0299028 0)
(-0.739908 0.0295808 0)
(-0.771674 0.0292346 5.63902e-20)
(-0.803507 0.0288644 0)
(-0.835404 0.0284731 -1.05895e-19)
(-0.86736 0.0280674 0)
(-0.899373 0.0276609 9.982e-20)
(-0.931442 0.0272773 0)
(-0.963572 0.0269554 0)
(-0.995788 0.0267577 -9.18288e-20)
(-1.02814 0.026788 0)
(-1.06066 0.0272145 -8.70434e-20)
(-1.0934 0.0274833 8.49384e-20)
(-1.1263 0.0273469 0)
(-1.1593 0.0272014 8.1164e-20)
(-1.19242 0.0270706 7.9415e-20)
(-1.22566 0.026948 0)
(-1.25903 0.026828 0)
(-1.29253 0.0267069 0)
(-1.32615 0.0265821 0)
(-1.35989 0.0264517 0)
(-1.39373 0.026314 -7.04528e-20)
(-1.42767 0.0261678 0)
(-1.46168 0.0260119 6.7942e-20)
(-1.49576 0.0258453 0)
(-1.52989 0.0256671 0)
(-1.56405 0.0254764 -6.45279e-20)
(-1.59822 0.0252725 0)
(-1.63238 0.0250547 6.24552e-20)
(-1.66651 0.0248224 0)
(-1.70059 0.0245749 0)
(-1.73458 0.0243117 0)
(-1.76847 0.0240324 -5.87153e-20)
(-1.80223 0.0237365 0)
(-1.83582 0.0234234 0)
(-1.86922 0.0230929 -5.62029e-20)
(-1.9024 0.0227444 0)
(-1.93533 0.0223775 -5.46409e-20)
(-1.96797 0.0219919 0)
(-2.00029 0.0215871 0)
(-2.03225 0.0211626 0)
(-2.06381 0.020718 5.1732e-20)
(-2.09494 0.0202528 0)
(-2.12559 0.0197665 0)
(-2.15573 0.0192586 4.96934e-20)
(-2.18531 0.0187285 4.9034e-20)
(-2.21429 0.0181758 0)
(-2.24261 0.0175998 4.77376e-20)
(-2.27023 0.0170001 0)
(-2.2971 0.0163762 9.29258e-20)
(-2.32317 0.0157276 0)
(-2.34838 0.0150541 9.04001e-20)
(-2.37268 0.0143555 0)
(-2.39601 0.0136316 -8.78789e-20)
(-2.41831 0.0128825 0)
(-2.43953 0.0121086 0)
(-2.4596 0.0113103 0)
(-2.47848 0.0104885 8.27735e-20)
(-2.49609 0.00964409 0)
(-2.51238 0.00877852 -8.01512e-20)
(-2.5273 0.00789333 0)
(-2.54079 0.00699034 7.74574e-20)
(-2.5528 0.00607155 7.60779e-20)
(-2.56329 0.00513906 7.46736e-20)
(-2.57221 0.00419503 0)
(-2.57953 0.00324137 0)
(-2.58519 0.00227882 0)
(-2.58918 0.00130754 0)
(-2.59144 0.000338371 0)
(-2.59198 -0.000617859 0)
(-2.59079 -0.00156205 0)
(-2.58787 -0.00249607 0)
(-2.58322 -0.00341989 -6.03861e-20)
(-2.57684 -0.00433321 -5.85757e-20)
(-2.56873 -0.00523564 0)
(-2.5589 -0.00612679 0)
(-2.54734 -0.00700622 0)
(-2.53406 -0.00787348 -5.08196e-20)
(-2.51906 -0.00872808 0)
(-2.50236 -0.00956953 0)
(-2.48396 -0.0103973 0)
(-2.46388 -0.0112108 0)
(-2.44212 -0.0120096 3.98058e-20)
(-2.4187 -0.0127929 0)
(-2.39364 -0.0135602 0)
(-2.36696 -0.0143108 -3.23853e-20)
(-2.33867 -0.0150439 2.97615e-20)
(-2.30881 -0.015759 0)
(-2.27739 -0.0164556 2.42723e-20)
(-2.24444 -0.017133 0)
(-2.21 -0.0177911 -1.84407e-20)
(-2.1741 -0.0184294 0)
(-2.13676 -0.0190477 0)
(-2.09802 -0.0196457 0)
(-2.05792 -0.020223 0)
(-2.01649 -0.0207791 0)
(-1.97378 -0.0213136 -2.7717e-21)
(-1.92983 -0.0218261 -1.01466e-20)
(-1.88468 -0.0223168 0)
(-1.83838 -0.0227857 0)
(-1.79098 -0.0232332 0)
(-1.74251 -0.0236596 4.22043e-20)
(-1.69302 -0.0240646 0)
(-1.64257 -0.024448 0)
(-1.59121 -0.0248098 0)
(-1.53898 -0.0251506 7.89902e-20)
(-1.48594 -0.0254718 -8.90452e-20)
(-1.43213 -0.0257744 0)
(-1.37761 -0.026058 0)
(-1.32242 -0.0263219 -1.21598e-19)
(-1.26662 -0.0265673 -1.33326e-19)
(-1.21026 -0.0267967 0)
(-1.15338 -0.0270118 0)
(-1.09602 -0.0272111 1.71558e-19)
(-1.03825 -0.0273944 -1.85435e-19)
(-0.980096 -0.027567 0)
(-0.921607 -0.027731 0)
(-0.86282 -0.0278819 -2.31071e-19)
(-0.803786 -0.0280224 0)
(-0.744532 -0.0281638 0)
(-0.685086 -0.0282976 -2.83891e-19)
(-0.625493 -0.0284236 0)
(-0.565766 -0.0285605 -3.24057e-19)
(-0.505948 -0.0286818 0)
(-0.446049 -0.0288231 0)
(-0.386085 -0.0289787 0)
(-0.326051 -0.0291258 4.20028e-19)
(-0.265966 -0.0293245 0)
(-0.205937 -0.0294959 0)
(-0.145642 -0.0297054 0)
(-0.0855972 -0.0300076 0)
(-0.0257523 -0.0302849 0)
(0.0357757 -0.0298086 0)
(0.0947407 -0.0287083 5.74104e-19)
(0.15385 -0.0277718 5.59428e-19)
(0.212493 -0.0269646 0)
(0.270825 -0.0262358 0)
(0.328913 -0.0255581 0)
(0.386771 -0.0249085 -5.11073e-19)
(0.444368 -0.0242613 0)
(0.501585 -0.0235757 9.82887e-19)
(0.558225 -0.022792 -9.6532e-19)
(0.613671 -0.0217483 -9.49434e-19)
(0.667379 -0.0202582 9.35852e-19)
(0.715429 -0.0173206 -9.26381e-19)
(0.760092 -0.0124567 9.24758e-19)
(0.753886 0.00437641 0)
(0.00263064 -0.0300032 0)
(0.00474768 -0.0260101 0)
(0.00149826 -0.0125395 4.55858e-19)
(-0.00580821 0.00242393 0)
(-0.0158539 0.0160823 -3.09308e-19)
(-0.0282393 0.0277016 -2.79638e-19)
(-0.042682 0.0372884 -1.29277e-19)
(-0.0589344 0.0450691 -1.20583e-19)
(-0.0768064 0.0513153 0)
(-0.096135 0.0564152 -1.05073e-19)
(-0.116802 0.0607167 0)
(-0.138652 0.0644012 0)
(-0.161543 0.0675666 1.7139e-19)
(-0.185353 0.0702684 8.039e-20)
(-0.209972 0.0725467 -1.50957e-19)
(-0.235305 0.0744381 -1.4216e-19)
(-0.261262 0.0759796 -6.71512e-20)
(-0.287763 0.077208 0)
(-0.314738 0.0781601 0)
(-0.34212 0.078871 0)
(-0.369853 0.0793736 -5.44972e-20)
(-0.397888 0.0796983 0)
(-0.426181 0.0798727 1.49544e-19)
(-0.454696 0.0799215 0)
(-0.483404 0.0798667 0)
(-0.512279 0.0797275 4.41878e-20)
(-0.541301 0.0795206 0)
(-0.570455 0.0792604 -4.11071e-20)
(-0.599729 0.0789593 -7.93761e-20)
(-0.629116 0.0786277 3.84758e-20)
(-0.65861 0.0782742 0)
(-0.688209 0.0779061 0)
(-0.717914 0.077529 0)
(-0.747725 0.0771478 -6.84217e-20)
(-0.777648 0.0767658 -6.66709e-20)
(-0.807687 0.0763857 -3.25734e-20)
(-0.837848 0.0760088 0)
(-0.868138 0.0756357 6.22008e-20)
(-0.898566 0.0752658 0)
(-0.929136 0.0748973 -5.96115e-20)
(-0.959854 0.0745272 0)
(-0.990719 0.0741508 0)
(-1.02173 0.0737629 5.61941e-20)
(-1.05285 0.073364 0)
(-1.08402 0.0729738 1.61835e-19)
(-1.11524 0.0726121 -5.29099e-20)
(-1.14655 0.0722652 0)
(-1.178 0.071935 -5.07734e-20)
(-1.20958 0.0716161 -4.9769e-20)
(-1.24127 0.0713004 0)
(-1.27306 0.070981 0)
(-1.30495 0.0706522 0)
(-1.33694 0.0703094 0)
(-1.369 0.0699487 0)
(-1.40114 0.0695665 4.45136e-20)
(-1.43334 0.0691598 8.72598e-20)
(-1.46559 0.068726 -4.30048e-20)
(-1.49787 0.0682625 0)
(-1.53016 0.0677672 8.29584e-20)
(-1.56245 0.067238 -4.0693e-20)
(-1.59472 0.0666731 0)
(-1.62695 0.0660708 -3.96402e-20)
(-1.65912 0.0654296 0)
(-1.6912 0.0647482 0)
(-1.72317 0.0640253 -7.54763e-20)
(-1.75501 0.0632598 3.72841e-20)
(-1.78669 0.0624505 -7.32464e-20)
(-1.81819 0.0615964 7.21718e-20)
(-1.84946 0.0606967 3.56676e-20)
(-1.88049 0.0597503 0)
(-1.91125 0.0587564 3.46475e-20)
(-1.9417 0.0577141 0)
(-1.97181 0.0566223 0)
(-2.00155 0.0554801 0)
(-2.03087 0.0542866 3.25216e-20)
(-2.05975 0.0530405 0)
(-2.08814 0.0517409 6.33929e-20)
(-2.11601 0.0503864 -9.38191e-20)
(-2.14331 0.048976 -3.08808e-20)
(-2.17 0.0475083 0)
(-2.19604 0.0459822 -2.9986e-20)
(-2.22137 0.0443965 0)
(-2.24594 0.0427502 -5.81963e-20)
(-2.26972 0.0410422 0)
(-2.29264 0.039272 -5.64228e-20)
(-2.31465 0.0374391 1.10816e-19)
(-2.3357 0.0355436 5.46407e-20)
(-2.35573 0.0335858 0)
(-2.37467 0.0315668 0)
(-2.39248 0.0294881 0)
(-2.4091 0.0273522 -5.10087e-20)
(-2.42446 0.025162 0)
(-2.43851 0.0229214 4.91396e-20)
(-2.4512 0.020635 0)
(-2.46247 0.0183082 -1.41595e-19)
(-2.47227 0.0159467 -4.62461e-20)
(-2.48055 0.013557 -4.5254e-20)
(-2.48727 0.0111454 0)
(-2.49239 0.00871757 0)
(-2.49587 0.00627638 0)
(-2.49767 0.00382398 0)
(-2.49777 0.00138359 0)
(-2.49618 -0.0010191 -7.79058e-20)
(-2.49289 -0.00338258 -7.56429e-20)
(-2.48791 -0.00570846 0)
(-2.48122 -0.00799644 3.54001e-20)
(-2.47283 -0.0102456 3.41892e-20)
(-2.46274 -0.012455 0)
(-2.45094 -0.0146232 6.36473e-20)
(-2.43745 -0.0167493 0)
(-2.42227 -0.0188318 -2.9407e-20)
(-2.4054 -0.0208694 0)
(-2.38684 -0.022861 0)
(-2.36662 -0.024805 5.0428e-20)
(-2.34474 -0.0267001 0)
(-2.32121 -0.0285449 -2.21812e-20)
(-2.29605 -0.0303379 0)
(-2.26927 -0.0320775 0)
(-2.24089 -0.0337619 -1.81966e-20)
(-2.21093 -0.0353897 -1.61716e-20)
(-2.17942 -0.036959 0)
(-2.14638 -0.0384686 1.35539e-20)
(-2.11183 -0.0399175 0)
(-2.07582 -0.0413047 -1.03245e-20)
(-2.03836 -0.0426295 -1.67344e-20)
(-1.99949 -0.0438916 0)
(-1.95924 -0.0450904 0)
(-1.91765 -0.0462254 0)
(-1.87476 -0.0472955 0)
(-1.83061 -0.0482998 1.39264e-21)
(-1.78523 -0.0492376 1.37354e-20)
(-1.73867 -0.0501091 0)
(-1.69099 -0.0509148 0)
(-1.64221 -0.0516559 0)
(-1.59239 -0.0523334 -2.01879e-20)
(-1.54157 -0.0529476 0)
(-1.4898 -0.0534977 0)
(-1.43713 -0.0539838 6.25087e-20)
(-1.38362 -0.0544076 3.44832e-20)
(-1.3293 -0.0547718 4.02099e-20)
(-1.27424 -0.0550801 0)
(-1.21847 -0.0553325 0)
(-1.16204 -0.0555268 5.27921e-20)
(-1.10502 -0.0556656 -5.53671e-20)
(-1.04744 -0.0557544 0)
(-0.989357 -0.0557978 0)
(-0.930809 -0.0557934 -7.02136e-20)
(-0.871847 -0.0557398 2.22291e-19)
(-0.81252 -0.0556478 0)
(-0.75286 -0.0555232 0)
(-0.692907 -0.0553575 8.83574e-20)
(-0.63271 -0.0551541 0)
(-0.572298 -0.0549345 1.9361e-19)
(-0.511697 -0.0546862 -1.00647e-19)
(-0.450947 -0.0544066 0)
(-0.390065 -0.0541278 1.12038e-19)
(-0.329091 -0.0538113 2.32025e-19)
(-0.268007 -0.0535027 0)
(-0.20689 -0.0532056 0)
(-0.145657 -0.0528775 -1.31781e-19)
(-0.0843956 -0.0525897 0)
(-0.0231917 -0.052292 2.81602e-19)
(0.0385263 -0.0519149 0)
(0.0995137 -0.051529 0)
(0.160294 -0.0512377 0)
(0.221152 -0.0505156 0)
(0.281518 -0.0494133 -1.4977e-19)
(0.341853 -0.0484778 -1.51084e-19)
(0.401936 -0.0476406 0)
(0.461816 -0.0468754 0)
(0.521511 -0.046149 0)
(0.581014 -0.0454271 1.5556e-19)
(0.640279 -0.0446654 0)
(0.699184 -0.0437911 -3.14716e-19)
(0.757531 -0.0426823 3.16379e-19)
(0.814798 -0.0410707 3.18047e-19)
(0.870537 -0.0385153 3.17603e-19)
(0.922011 -0.0336832 3.22219e-19)
(0.97185 -0.0246515 3.24183e-19)
(0.99662 -0.00395393 0)
(-0.00256802 -0.0284305 0)
(-0.00961489 -0.0117809 0)
(-0.0207008 0.00925229 -2.89648e-19)
(-0.0334882 0.0278411 -2.19696e-19)
(-0.0475739 0.0440188 1.87683e-19)
(-0.062691 0.0580215 1.69429e-19)
(-0.0788538 0.0700213 4.93406e-23)
(-0.0960934 0.0802074 0)
(-0.114408 0.088807 0)
(-0.133757 0.0960793 0)
(-0.15406 0.102266 0)
(-0.175215 0.107547 0)
(-0.197121 0.112045 -3.30077e-19)
(-0.21969 0.11585 0)
(-0.242843 0.119031 9.88134e-20)
(-0.266512 0.12165 9.38699e-20)
(-0.290639 0.123763 0)
(-0.31517 0.125426 0)
(-0.340059 0.126692 0)
(-0.365264 0.127612 0)
(-0.390748 0.128232 7.45897e-20)
(-0.416478 0.128597 0)
(-0.442429 0.128745 -6.88571e-20)
(-0.468575 0.128713 0)
(-0.494897 0.128533 0)
(-0.521379 0.128232 0)
(-0.548008 0.127836 -1.19447e-19)
(-0.574774 0.127364 0)
(-0.60167 0.126836 5.61099e-20)
(-0.628692 0.126266 -1.08875e-19)
(-0.655835 0.125666 0)
(-0.6831 0.125048 0)
(-0.710485 0.124419 0)
(-0.737994 0.123786 4.88964e-20)
(-0.765627 0.123154 4.77065e-20)
(-0.793388 0.122528 0)
(-0.82128 0.12191 0)
(-0.849306 0.121304 -8.89256e-20)
(-0.87747 0.12071 -8.6998e-20)
(-0.905772 0.120132 8.5152e-20)
(-0.934215 0.119569 0)
(-0.9628 0.119025 0)
(-0.991523 0.118497 0)
(-1.02038 0.117986 0)
(-1.04934 0.117481 -7.68364e-20)
(-1.0784 0.116957 -7.51268e-20)
(-1.10758 0.116413 7.35879e-20)
(-1.13686 0.115863 0)
(-1.16627 0.115311 0)
(-1.19578 0.114751 0)
(-1.22539 0.114178 0)
(-1.2551 0.113587 -6.67206e-20)
(-1.28489 0.11297 0)
(-1.31476 0.112323 0)
(-1.3447 0.11164 -6.31635e-20)
(-1.37469 0.110917 -6.21905e-20)
(-1.40472 0.11015 0)
(-1.43477 0.109336 1.19888e-19)
(-1.46484 0.10847 -5.90713e-20)
(-1.4949 0.107549 5.80929e-20)
(-1.52493 0.106572 0)
(-1.55492 0.105535 0)
(-1.58485 0.104435 0)
(-1.61468 0.103271 0)
(-1.64441 0.102042 5.35863e-20)
(-1.674 0.100744 1.05241e-19)
(-1.70343 0.0993768 5.19364e-20)
(-1.73268 0.0979387 -5.11388e-20)
(-1.76172 0.0964281 0)
(-1.79052 0.0948436 9.89332e-20)
(-1.81905 0.0931839 9.74343e-20)
(-1.84728 0.0914476 9.59619e-20)
(-1.87518 0.0896331 -9.4514e-20)
(-1.90272 0.0877389 0)
(-1.92987 0.0857634 -1.37638e-19)
(-1.95659 0.0837049 0)
(-1.98284 0.0815615 4.43529e-20)
(-2.00859 0.0793313 4.38879e-20)
(-2.03379 0.0770124 0)
(-2.05841 0.0746026 0)
(-2.0824 0.0720999 8.35549e-20)
(-2.10572 0.0695023 0)
(-2.12832 0.066808 8.09149e-20)
(-2.15016 0.0640154 0)
(-2.17117 0.0611233 -7.8284e-20)
(-2.19131 0.058131 -1.54076e-19)
(-2.21053 0.0550382 0)
(-2.22877 0.0518456 0)
(-2.24597 0.0485546 0)
(-2.26208 0.0451679 -7.16526e-20)
(-2.27704 0.0416891 0)
(-2.29078 0.0381232 -6.89438e-20)
(-2.30327 0.0344762 0)
(-2.31443 0.0307557 0)
(-2.32421 0.0269703 1.29594e-19)
(-2.33257 0.0231294 0)
(-2.33945 0.0192434 6.19338e-20)
(-2.34481 0.0153228 0)
(-2.34862 0.0113768 5.90133e-20)
(-2.35083 0.00741247 0)
(-2.3514 0.00344807 0)
(-2.35035 -0.000477939 0)
(-2.34766 -0.00434192 1.58287e-19)
(-2.34333 -0.0081436 5.10575e-20)
(-2.33735 -0.0118827 0)
(-2.32972 -0.0155582 0)
(-2.32044 -0.0191685 0)
(-2.30951 -0.0227116 0)
(-2.29693 -0.0261856 -4.24651e-20)
(-2.28271 -0.0295885 8.17278e-20)
(-2.26684 -0.0329182 3.88443e-20)
(-2.24934 -0.0361725 -7.4437e-20)
(-2.23021 -0.0393492 -7.07119e-20)
(-2.20945 -0.042446 -3.3215e-20)
(-2.18709 -0.0454607 0)
(-2.16312 -0.0483909 -5.92221e-20)
(-2.13757 -0.0512343 0)
(-2.11045 -0.0539883 5.13057e-20)
(-2.08178 -0.0566502 2.33182e-20)
(-2.05157 -0.0592172 0)
(-2.01985 -0.0616867 -3.90631e-20)
(-1.98665 -0.0640564 -1.70893e-20)
(-1.95199 -0.0663246 0)
(-1.91589 -0.0684899 -1.35809e-20)
(-1.87839 -0.0705511 3.27629e-20)
(-1.83952 -0.0725076 0)
(-1.79932 -0.0743588 0)
(-1.75781 -0.0761037 0)
(-1.71504 -0.077741 0)
(-1.67103 -0.079269 1.12118e-24)
(-1.62584 -0.0806865 -5.41648e-21)
(-1.5795 -0.0819937 0)
(-1.53206 -0.0831916 0)
(-1.48356 -0.084282 0)
(-1.43404 -0.085267 0)
(-1.38356 -0.0861472 0)
(-1.33215 -0.0869213 0)
(-1.27987 -0.0875893 -3.79216e-20)
(-1.22676 -0.0881538 -1.0033e-21)
(-1.17288 -0.0886191 0)
(-1.11826 -0.0889918 0)
(-1.06296 -0.0892719 -5.58639e-20)
(-1.00702 -0.0894562 0)
(-0.950501 -0.0895479 6.64397e-20)
(-0.893443 -0.0895561 7.01719e-20)
(-0.83589 -0.0894887 0)
(-0.777884 -0.0893424 0)
(-0.719474 -0.0891141 -8.55778e-20)
(-0.660707 -0.0888203 -1.78596e-19)
(-0.601616 -0.0884714 0)
(-0.542236 -0.0880546 0)
(-0.482616 -0.0875741 0)
(-0.422782 -0.087062 -1.09447e-19)
(-0.362765 -0.0865028 1.14197e-19)
(-0.302593 -0.0858908 0)
(-0.242288 -0.0852713 2.45189e-19)
(-0.1819 -0.0846028 1.26238e-19)
(-0.121347 -0.0839254 -2.64005e-19)
(-0.0608244 -0.0832657 0)
(-0.000101199 -0.0825546 0)
(0.0606013 -0.0818232 -2.87978e-19)
(0.121027 -0.0810919 -1.47535e-19)
(0.181487 -0.0802428 0)
(0.241714 -0.0793255 0)
(0.301761 -0.0784931 0)
(0.361693 -0.0774559 0)
(0.421539 -0.0762349 -3.16221e-19)
(0.4814 -0.0751178 0)
(0.541126 -0.0740852 0)
(0.600719 -0.0731144 0)
(0.660169 -0.0721713 0)
(0.719455 -0.0712118 0)
(0.778524 -0.0701726 0)
(0.837261 -0.0689483 -3.44002e-19)
(0.89549 -0.0673619 0)
(0.952777 -0.0650584 0)
(1.00886 -0.0614578 -7.09912e-19)
(1.06178 -0.0551086 3.58083e-19)
(1.11493 -0.0442065 -3.6461e-19)
(1.15423 -0.0229123 3.69542e-19)
(-0.00757238 -0.00997829 0)
(-0.0203148 0.0168997 7.51744e-19)
(-0.0347955 0.0397814 0)
(-0.0505477 0.059378 1.67e-19)
(-0.0668888 0.0766364 0)
(-0.083589 0.0918752 0)
(-0.100747 0.105229 -1.1803e-19)
(-0.118468 0.116814 0)
(-0.136805 0.126785 0)
(-0.155769 0.135327 0)
(-0.175336 0.142629 0)
(-0.195459 0.148855 0)
(-0.216086 0.154137 3.37725e-19)
(-0.237165 0.158582 1.60661e-19)
(-0.25865 0.16228 -1.53059e-19)
(-0.280501 0.16531 0)
(-0.302681 0.167742 0)
(-0.32516 0.169646 0)
(-0.34791 0.171083 0)
(-0.370907 0.172113 0)
(-0.39413 0.172791 1.181e-19)
(-0.417559 0.173169 1.13691e-19)
(-0.44118 0.173293 -1.09598e-19)
(-0.464976 0.173205 1.05791e-19)
(-0.488938 0.172942 0)
(-0.513055 0.172539 0)
(-0.53732 0.172023 9.58297e-20)
(-0.561727 0.17142 0)
(-0.586272 0.170752 0)
(-0.610951 0.170036 8.76779e-20)
(-0.635764 0.169289 8.52762e-20)
(-0.66071 0.168522 8.30096e-20)
(-0.685789 0.167745 0)
(-0.711003 0.166966 0)
(-0.736352 0.16619 -7.69092e-20)
(-0.761839 0.165421 0)
(-0.787466 0.164662 0)
(-0.813233 0.163912 7.16753e-20)
(-0.839143 0.163173 -7.00045e-20)
(-0.865195 0.162442 6.84526e-20)
(-0.89139 0.161718 0)
(-0.917724 0.160998 0)
(-0.944198 0.160281 1.28296e-19)
(-0.970805 0.159566 0)
(-0.997541 0.158851 1.22946e-19)
(-1.02441 0.158131 1.80652e-19)
(-1.0514 0.157406 -1.76969e-19)
(-1.07851 0.156675 1.15577e-19)
(-1.10575 0.155936 0)
(-1.1331 0.155181 0)
(-1.16055 0.154404 1.08989e-19)
(-1.1881 0.153596 5.3536e-20)
(-1.21573 0.152751 0)
(-1.24345 0.151862 0)
(-1.27123 0.150922 5.0675e-20)
(-1.29906 0.149926 9.94322e-20)
(-1.32693 0.148868 0)
(-1.35482 0.147744 -9.61521e-20)
(-1.38272 0.146549 9.43886e-20)
(-1.41062 0.145279 -9.2804e-20)
(-1.43848 0.14393 0)
(-1.46631 0.142499 0)
(-1.49406 0.140983 0)
(-1.52173 0.139379 0)
(-1.54929 0.137686 0)
(-1.57672 0.135899 -8.42642e-20)