/*--------------------------------*- C++ -*----------------------------------*\
| =========                 |                                                 |
| \\      /  F ield         | OpenFOAM Extend Project: Open source CFD        |
|  \\    /   O peration     | Version:  1.6-ext                               |
|   \\  /    A nd           | Web:      www.extend-project.de                 |
|    \\/     M anipulation  |                                                 |
\*---------------------------------------------------------------------------*/
FoamFile
{
    version     2.0;
    format      ascii;
    class       volScalarField;
    location    "2000";
    object      epsilon;
}
// * * * * * * * * * * * * * * * * * * * * * * * * * * * * * * * * * * * * * //

dimensions      [0 2 -3 0 0 0 0];

internalField   nonuniform List<scalar> 
12225
(
496.388
419.968
359.223
311.717
275.117
247.341
226.652
211.651
201.232
194.522
190.826
189.581
190.325
192.669
196.286
200.894
206.27
213.693
107.246
132.133
136.68
136.863
136.972
138.446
141.789
147.115
154.371
163.421
174.085
186.157
199.412
213.62
228.552
243.989
259.836
275.573
33.7876
47.5852
55.3359
59.9858
63.0889
65.4977
67.7091
70.0129
72.5757
75.4893
78.7966
82.5066
86.6046
91.0581
95.8213
100.837
106.027
111.202
19.1185
24.0148
28.046
31.1909
33.6447
35.6059
37.2415
38.679
40.0113
41.3043
42.6035
43.9388
45.3277
46.7781
48.29
49.8557
51.4565
53.0472
15.7934
17.3611
19.0138
20.5495
21.9081
23.0881
24.1126
25.0118
25.8149
26.5471
27.2294
27.8778
28.5045
29.1181
29.7238
30.3235
30.9152
31.4876
14.953
15.3348
15.8778
16.4841
17.0942
17.6764
18.2167
18.7121
19.1646
19.579
19.9605
20.3144
20.6456
20.9579
21.2543
21.5369
21.8063
22.0591
14.7453
14.7305
14.8065
14.9488
15.133
15.3391
15.5529
15.7655
15.9715
16.1681
16.3542
16.5294
16.6943
16.8494
16.9953
17.1327
17.2617
17.3808
14.7029
14.5849
14.5129
14.4833
14.4889
14.5207
14.5709
14.6329
14.7019
14.7742
14.8475
14.92
14.9907
15.0589
15.1243
15.1865
15.2454
15.2993
14.6914
14.5405
14.4132
14.3107
14.2318
14.1738
14.1335
14.1073
14.0923
14.0857
14.0855
14.0898
14.0974
14.1073
14.1185
14.1306
14.1429
14.1543
14.6881
14.5264
14.3785
14.2451
14.1264
14.0219
13.9306
13.8514
13.7827
13.7232
13.6716
13.6268
13.5876
13.5532
13.5227
13.4956
13.4713
13.4492
14.6871
14.5225
14.3684
14.2245
14.0908
13.9671
13.853
13.748
13.6515
13.563
13.4817
13.4071
13.3385
13.2752
13.2169
13.1629
13.1129
13.0667
14.6868
14.5215
14.3657
14.219
14.0808
13.9509
13.8288
13.7141
13.6064
13.5055
13.4107
13.3219
13.2386
13.1603
13.0869
13.0179
12.953
12.8925
14.6866
14.5211
14.3649
14.2175
14.0782
13.9467
13.8224
13.7049
13.5938
13.4887
13.3893
13.2953
13.2064
13.1222
13.0425
12.967
12.8955
12.8285
14.6865
14.5209
14.3645
14.2169
14.0774
13.9454
13.8206
13.7024
13.5904
13.4843
13.3837
13.2882
13.1976
13.1116
13.03
12.9524
12.8787
12.8093
14.6864
14.5207
14.3643
14.2165
14.0769
13.9448
13.8197
13.7013
13.5891
13.4827
13.3818
13.286
13.195
13.1085
13.0263
12.9482
12.8739
12.8039
14.6863
14.5206
14.3641
14.2163
14.0765
13.9443
13.8192
13.7007
13.5884
13.4818
13.3808
13.2848
13.1937
13.1071
13.0247
12.9464
12.8719
12.8018
14.6863
14.5205
14.364
14.2161
14.0763
13.944
13.8188
13.7002
13.5878
13.4812
13.3801
13.2841
13.1928
13.1061
13.0237
12.9453
12.8707
12.8005
14.6863
14.5205
14.3639
14.216
14.0762
13.9439
13.8187
13.7
13.5876
13.4809
13.3797
13.2836
13.1924
13.1056
13.0231
12.9447
12.8701
12.7998
14.6863
14.5205
14.3639
14.216
14.0762
13.9439
13.8187
13.7
13.5876
13.4809
13.3797
13.2836
13.1923
13.1056
13.0231
12.9446
12.87
12.7998
14.6863
14.5205
14.364
14.2161
14.0763
13.9441
13.8189
13.7003
13.5879
13.4813
13.3801
13.2841
13.1929
13.1062
13.0239
12.9455
12.8711
12.801
14.6863
14.5206
14.3641
14.2164
14.0767
13.9446
13.8196
13.7013
13.5892
13.4831
13.3825
13.287
13.1965
13.1107
13.0291
12.9517
12.8783
12.8092
14.6864
14.5208
14.3646
14.2173
14.0784
13.9475
13.824
13.7076
13.5979
13.4945
13.397
13.305
13.2183
13.1364
13.0591
12.9861
12.9171
12.8527
14.6867
14.522
14.3679
14.2241
14.0904
13.9665
13.8518
13.7457
13.6477
13.557
13.4731
13.3954
13.3233
13.2562
13.1938
13.1356
13.0812
13.0309
14.689
14.5316
14.3916
14.2691
14.1635
14.0732
13.9962
13.9306
13.8745
13.8263
13.7845
13.7479
13.7156
13.6867
13.6606
13.6369
13.6152
13.5955
14.707
14.5981
14.5352
14.5111
14.5166
14.5427
14.5817
14.6282
14.6779
14.728
14.7768
14.823
14.8662
14.9061
14.9425
14.9756
15.0055
15.0328
14.8353
14.9861
15.2455
15.5561
15.8794
16.1926
16.4837
16.7479
16.9843
17.194
17.3794
17.543
17.6875
17.8155
17.9295
18.0313
18.123
18.2061
15.6395
16.9073
18.1902
19.334
20.306
21.1141
21.7801
22.3287
22.7823
23.1604
23.4789
23.7511
23.9875
24.1965
24.3849
24.5579
24.7195
24.8729
20.4703
25.7426
29.3973
31.9068
33.6429
34.8534
35.7112
36.3352
36.807
37.1831
37.5031
37.7948
38.0773
38.3637
38.6627
38.9793
39.3157
39.6724
50.3196
65.3649
71.1336
73.232
73.6739
73.3829
72.8423
72.3055
71.9022
71.6948
71.7089
71.9488
72.4073
73.0706
73.921
74.939
76.1015
77.3937
352.736
303.105
264.274
233.367
208.478
188.268
171.746
158.166
146.953
137.663
129.946
123.528
118.19
113.755
110.08
107.047
104.559
102.537
0.145527
0.151596
0.225314
0.287795
0.354168
0.430983
0.518922
0.626967
0.756945
0.903763
1.07132
1.26068
1.47224
1.70628
1.96321
2.24349
2.54772
2.87657
3.23085
3.61147
4.01949
4.4561
4.92263
5.42064
5.9519
6.51848
7.12283
7.76788
8.45719
9.19514
9.9872
10.8403
11.7634
12.7679
13.8689
15.0862
16.4463
17.9848
19.7498
21.8075
24.2495
27.2048
30.857
35.4731
41.4486
44.3359
47.1816
50.1515
53.259
56.5095
59.9077
63.4583
67.1657
71.0346
75.0693
79.274
83.653
88.2103
92.9496
97.8747
102.989
108.296
113.798
119.498
125.398
131.501
137.808
144.32
151.038
157.963
165.095
172.433
179.977
187.724
195.672
203.82
212.163
220.699
229.421
238.325
247.405
256.653
266.063
275.624
285.328
295.164
305.12
315.184
325.342
335.58
345.881
356.23
366.61
377.005
387.398
397.774
408.121
418.428
428.695
438.927
449.147
459.402
469.539
479.489
489.239
498.774
508.077
517.132
525.924
534.438
542.657
550.568
558.155
565.404
572.303
578.837
584.995
590.765
596.137
601.1
605.645
609.765
613.454
616.705
619.514
621.879
623.796
625.263
626.281
626.85
626.973
626.653
625.895
624.705
623.09
621.059
618.618
615.777
612.549
608.945
604.979
600.663
596.01
591.035
585.754
580.185
574.34
568.236
561.893
555.327
548.553
541.587
534.454
527.164
519.732
512.184
504.522
496.774
488.962
481.074
473.162
465.212
457.201
449.348
441.853
436.639
433.41
430.44
427.542
424.689
421.873
419.086
416.312
413.519
410.651
407.568
404.071
399.407
392.782
378.054
0.432064
0.295123
0.303834
0.355113
0.426403
0.514555
0.619707
0.742428
0.882611
1.03942
1.21234
1.40098
1.6051
1.82457
2.0594
2.30976
2.57591
2.8583
3.15751
3.47428
3.80948
4.16417
4.53953
4.93695
5.358
5.80447
6.2784
6.78214
7.31837
7.89019
8.50116
9.15539
9.85759
10.6132
11.4284
12.31
13.2657
14.3036
15.4318
16.6574
17.9851
19.414
20.9324
22.5089
24.0767
25.5044
26.9517
28.4527
30.0145
31.6394
33.3292
35.0853
36.9093
38.8026
40.7665
42.8024
44.9114
47.0947
49.3534
51.6884
54.1005
56.5905
59.1589
61.8063
64.533
67.3391
70.2247
73.1896
76.2335
79.3559
82.556
85.833
89.1858
92.613
96.1131
99.6842
103.324
107.031
110.803
114.636
118.527
122.474
126.472
130.518
134.608
138.738
142.903
147.099
151.32
155.562
159.819
164.087
168.361
172.635
176.906
181.169
185.424
189.667
193.901
198.127
202.351
206.594
210.806
214.953
219.025
223.015
226.918
230.727
234.436
238.04
241.531
244.904
248.154
251.274
254.26
257.106
259.808
262.36
264.758
266.998
269.076
270.989
272.735
274.309
275.711
276.938
277.989
278.863
279.559
280.077
280.416
280.579
280.566
280.379
280.02
279.492
278.796
277.937
276.917
275.741
274.414
272.94
271.323
269.569
267.683
265.672
263.541
261.295
258.942
256.487
253.937
251.298
248.577
245.78
242.913
239.984
236.997
233.958
230.875
227.749
224.591
221.404
218.154
214.977
211.922
209.297
207.121
205.06
203.047
201.065
199.11
197.179
195.272
193.383
191.508
189.634
187.743
185.795
183.792
182.881
0.920575
0.533195
0.510764
0.551472
0.622407
0.716805
0.832471
0.968041
1.12211
1.29317
1.47997
1.68164
1.89772
2.12803
2.37263
2.63178
2.90587
3.19545
3.50121
3.82398
4.16471
4.52446
4.90445
5.306
5.73055
6.17969
6.65513
7.15874
7.69252
8.25863
8.85937
9.49716
10.1745
10.8939
11.658
12.469
13.3288
14.239
15.2
16.211
17.2693
18.3704
19.5072
20.671
21.8538
23.0539
24.2904
25.5723
26.9032
28.2847
29.7184
31.2053
32.7466
34.3433
35.9965
37.7071
39.476
41.3041
43.1922
45.1409
47.1508
49.2226
51.3566
53.5531
55.8124
58.1346
60.5196
62.9673
65.4773
68.0493
70.6825
73.3763
76.1297
78.9416
81.8108
84.7358
87.7151
90.7467
93.8289
96.9595
100.136
103.357
106.618
109.918
113.253
116.621
120.018
123.442
126.888
130.354
133.836
137.33
140.833
144.342
147.853
151.364
154.872
158.374
161.869
165.356
168.835
172.299
175.723
179.094
182.406
185.653
188.829
191.93
194.95
197.885
200.73
203.479
206.128
208.673
211.109
213.431
215.636
217.721
219.68
221.511
223.211
224.776
226.206
227.496
228.646
229.654
230.518
231.239
231.814
232.245
232.531
232.673
232.671
232.528
232.244
231.822
231.265
230.573
229.751
228.801
227.727
226.534
225.224
223.801
222.271
220.638
218.907
217.082
215.168
213.171
211.095
208.946
206.728
204.448
202.109
199.716
197.276
194.787
192.263
189.695
187.099
184.495
181.866
179.27
176.74
174.376
172.195
170.095
168.039
166.015
164.021
162.057
160.123
158.223
156.361
154.547
152.799
151.168
149.774
149.437
1.5398
0.822914
0.7325
0.755126
0.822768
0.919697
1.04065
1.1829
1.34438
1.52331
1.71824
1.9282
2.15264
2.39138
2.6445
2.91231
3.19529
3.49406
3.80936
4.14205
4.49306
4.86345
5.25435
5.66696
6.10257
6.56253
7.04824
7.56118
8.10285
8.67479
9.27852
9.91557
10.5874
11.2953
12.0404
12.8237
13.6458
14.5069
15.4067
16.3445
17.319
18.3289
19.3725
20.449
21.559
22.7052
23.8924
25.1239
26.4021
27.7283
29.1039
30.5301
32.008
33.5387
35.1233
36.7627
38.458
40.21
42.0197
43.8878
45.8151
47.8022
49.8496
51.9579
54.1274
56.3583
58.6509
61.005
63.4206
65.8974
68.4349
71.0327
73.6899
76.4056
79.1788
82.0083
84.8927
87.8304
90.8197
93.8588
96.9457
100.078
103.254
106.471
109.726
113.018
116.342
119.697
123.079
126.486
129.914
133.359
136.819
140.29
143.769
147.251
150.734
154.214
157.686
161.149
164.595
168.012
171.385
174.706
177.968
181.165
184.292
187.343
190.314
193.199
195.993
198.692
201.29
203.784
206.168
208.438
210.59
212.621
214.526
216.303
217.948
219.459
220.833
222.067
223.161
224.113
224.921
225.585
226.105
226.481
226.712
226.799
226.744
226.548
226.212
225.74
225.133
224.394
223.526
222.532
221.416
220.182
218.834
217.376
215.812
214.148
212.388
210.536
208.599
206.58
204.486
202.32
200.088
197.796
195.447
193.046
190.602
188.102
185.579
183.028
180.455
177.874
175.284
172.711
170.182
167.741
165.397
163.113
160.871
158.664
156.491
154.353
152.255
150.202
148.205
146.281
144.461
142.815
141.457
140.866
2.14953
1.0876
0.936895
0.9428
1.0058
1.1025
1.22504
1.36966
1.53391
1.71596
1.91436
2.12814
2.35675
2.59998
2.85795
3.13097
3.41954
3.7243
4.04599
4.38546
4.74363
5.12149
5.52009
5.94051
6.38392
6.85146
7.34434
7.86377
8.41094
8.98705
9.59325
10.2307
10.9003
11.603
12.3397
13.111
13.9174
14.7593
15.6367
16.5499
17.4988
18.4837
19.5051
20.5639
21.6616
22.8005
23.9827
25.2105
26.4855
27.8092
29.183
30.6083
32.0864
33.6184
35.2058
36.8496
38.5511
40.3115
42.1318
44.0131
45.9564
47.9626
50.0325
52.1669
54.3664
56.6316
58.9627
61.3602
63.8241
66.3545
68.951
71.6134
74.3412
77.1336
79.9898
82.9087
85.889
88.9294
92.0283
95.184
98.3945
101.658
104.972
108.334
111.743
115.194
118.687
122.217
125.783
129.38
133.006
136.657
140.329
144.018
147.72
151.431
155.145
158.858
162.564
166.259
169.929
173.561
177.144
180.67
184.133
187.525
190.841
194.076
197.222
200.275
203.229
206.079
208.82
211.447
213.954
216.337
218.592
220.715
222.702
224.549
226.253
227.811
229.221
230.48
231.586
232.539
233.337
233.981
234.468
234.801
234.978
235.002
234.872
234.592
234.163
233.588
232.871
232.013
231.018
229.889
228.632
227.251
225.75
224.134
222.407
220.574
218.643
216.617
214.5
212.3
210.024
207.673
205.252
202.774
200.234
197.641
195.014
192.343
189.647
186.928
184.191
181.447
178.7
175.965
173.263
170.616
168.031
165.494
162.998
160.539
158.12
155.744
153.415
151.144
148.943
146.834
144.853
143.064
141.555
140.596
2.66343
1.31756
1.11409
1.10415
1.16166
1.2565
1.37842
1.52279
1.6869
1.8689
2.06744
2.28161
2.51089
2.7551
3.01433
3.28891
3.57934
3.88624
4.21036
4.5525
4.91357
5.29449
5.69625
6.11987
6.5664
7.03689
7.5324
8.05402
8.6028
9.17977
9.78594
10.4223
11.0897
11.7891
12.5212
13.2869
14.0868
14.9215
15.7918
16.6984
17.6419
18.6235
19.6443
20.7056
21.8092
22.9568
24.1504
25.3916
26.6823
28.024
29.4183
30.8669
32.3712
33.9328
35.5533
37.2341
38.9769
40.7831
42.6541
44.5914
46.5963
48.6701
50.814
53.029
55.3163
57.6767
60.1109
62.6196
65.2032
67.862
70.5962
73.4055
76.2898
79.2486
82.2811
85.3865
88.5637
91.8113
95.1279
98.5117
101.961
105.473
109.047
112.679
116.368
120.11
123.903
127.743
131.629
135.556
139.52
143.518
147.545
151.597
155.667
159.752
163.843
167.935
172.021
176.093
180.131
184.123
188.059
191.931
195.731
199.452
203.088
206.63
210.073
213.411
216.637
219.746
222.73
225.586
228.308
230.889
233.327
235.616
237.751
239.73
241.548
243.202
244.69
246.01
247.16
248.138
248.944
249.577
250.038
250.327
250.444
250.391
250.169
249.78
249.229
248.517
247.649
246.627
245.456
244.14
242.683
241.092
239.372
237.528
235.563
233.486
231.303
229.019
226.638
224.169
221.62
218.992
216.287
213.53
210.717
207.852
204.951
202.012
199.048
196.063
193.064
190.059
187.054
184.06
181.092
178.165
175.284
172.446
169.649
166.893
164.182
161.521
158.918
156.383
153.931
151.587
149.385
147.38
145.63
144.29
3.09982
1.51234
1.2609
1.23535
1.28656
1.3783
1.49812
1.64053
1.80258
1.98239
2.17871
2.39071
2.61792
2.86019
3.11764
3.39058
3.6795
3.98502
4.30786
4.64881
5.00875
5.38856
5.78921
6.21166
6.65691
7.12596
7.61983
8.13954
8.68609
9.2605
9.86375
10.4968
11.1607
11.8563
12.5845
13.3463
14.1427
14.9747
15.8432
16.7493
17.6944
18.6797
19.7068
20.7772
21.8927
23.0552
24.2666
25.5287
26.8433
28.2124
29.6379
31.1216
32.6653
34.2712
35.941
37.6767
39.4803
41.3536
43.2986
45.3171
47.4108
49.5816
51.8311
54.1608
56.5723
59.0668
61.6455
64.3094
67.0595
69.8963
72.8203
75.8318
78.9307
82.1167
85.3895
88.7482
92.1918
95.7191
99.3286
103.019
106.787
110.632
114.551
118.541
122.6
126.725
130.912
135.159
139.462
143.818
148.221
152.668
157.153
161.671
166.214
170.777
175.351
179.929
184.501
189.049
193.555
198.006
202.393
206.705
210.935
215.074
219.114
223.047
226.867
230.564
234.133
237.568
240.86
244.004
246.995
249.826
252.492
254.989
257.311
259.454
261.414
263.189
264.775
266.17
267.374
268.383
269.199
269.82
270.248
270.482
270.525
270.377
270.04
269.519
268.816
267.935
266.881
265.657
264.269
262.721
261.018
259.168
257.178
255.052
252.795
250.415
247.923
245.323
242.613
239.811
236.93
233.968
230.933
227.839
224.689
221.49
218.252
214.98
211.683
208.368
205.04
201.708
198.379
195.062
191.768
188.509
185.29
182.111
178.976
175.886
172.847
169.867
166.953
164.118
161.379
158.76
156.291
154.019
151.975
150.254
3.45301
1.67158
1.37751
1.33663
1.3807
1.46818
1.58465
1.72378
1.88233
2.05836
2.25068
2.45853
2.68151
2.9195
3.17264
3.44125
3.7258
4.02692
4.34529
4.68172
5.03705
5.41216
5.80799
6.22549
6.66565
7.12946
7.61794
8.13212
8.67301
9.24166
9.83912
10.4664
11.1247
11.8149
12.5383
13.2959
14.0889
14.9187
15.7865
16.6938
17.642
18.6329
19.6681
20.7495
21.8791
23.0589
24.291
25.5775
26.9206
28.3225
29.7853
31.3115
32.9034
34.5632
36.2935
38.0965
39.9749
41.9309
43.9669
46.0855
48.2888
50.5792
52.9589
55.4299
57.9943
60.6538
63.4102
66.265
69.2194
72.2745
75.4313
78.6901
82.0514
85.5152
89.0811
92.7485
96.5166
100.384
104.349
108.411
112.566
116.812
121.148
125.569
130.074
134.658
139.318
144.051
148.853
153.718
158.643
163.622
168.65
173.718
178.82
183.947
189.089
194.236
199.376
204.477
209.527
214.512
219.421
224.244
228.97
233.59
238.095
242.476
246.725
250.833
254.792
258.595
262.234
265.703
268.995
272.104
275.024
277.749
280.275
282.596
284.709
286.61
288.298
289.768
291.021
292.055
292.871
293.467
293.845
294.006
293.951
293.684
293.206
292.522
291.636
290.552
289.276
287.813
286.168
284.347
282.354
280.202
277.897
275.445
272.846
270.114
267.264
264.301
261.227
258.054
254.795
251.454
248.039
244.561
241.027
237.445
233.822
230.168
226.489
222.794
219.089
215.382
211.68
207.992
204.328
200.697
197.104
193.553
190.048
186.594
183.198
179.868
176.615
173.451
170.394
167.466
164.695
162.117
159.745
157.643
3.72293
1.79662
1.46592
1.41024
1.44642
1.52857
1.64052
1.77518
1.929
2.09994
2.28683
2.48895
2.70596
2.93777
3.18455
3.4466
3.72443
4.01863
4.32991
4.65904
5.00687
5.37428
5.76221
6.17163
6.60353
7.05893
7.53888
8.04444
8.5767
9.13678
9.7258
10.3449
10.9954
11.6784
12.3954
13.1475
13.9363
14.7632
15.6299
16.5381
17.4896
18.4862
19.5301
20.6234
21.7682
22.967
24.222
25.536
26.9112
28.3505
29.8565
31.4319
33.0797
34.8027
36.6038
38.4861
40.4525
42.506
44.6498
46.8867
49.2197
51.6517
54.1855
56.8238
59.5692
62.424
65.3905
68.4708
71.6665
74.9793
78.4103
81.9606
85.6306
89.4206
93.3306
97.36
101.508
105.773
110.154
114.648
119.253
123.967
128.786
133.707
138.726
143.84
149.045
154.335
159.707
165.156
170.676
176.261
181.904
187.596
193.329
199.092
204.874
210.661
216.428
222.143
227.794
233.367
238.85
244.232
249.501
254.645
259.654
264.519
269.23
273.777
278.152
282.346
286.352
290.161
293.767
297.162
300.342
303.298
306.028
308.523
310.782
312.801
314.576
316.108
317.393
318.432
319.224
319.771
320.073
320.132
319.95
319.532
318.88
317.998
316.892
315.567
314.031
312.29
310.349
308.214
305.887
303.391
300.73
297.91
294.937
291.823
288.579
285.215
281.736
278.154
274.48
270.72
266.885
262.985
259.027
255.021
250.976
246.899
242.8
238.687
234.566
230.446
226.335
222.241
218.172
214.137
210.141
206.191
202.292
198.45
194.673
190.971
187.354
183.836
180.436
177.173
174.071
171.159
168.435
165.95
3.91408
1.89003
1.52898
1.45935
1.48711
1.56296
1.66932
1.79842
1.9464
2.11111
2.29136
2.48645
2.69607
2.92017
3.15891
3.41263
3.68183
3.96711
4.26916
4.58877
4.92679
5.28412
5.66171
6.06055
6.48168
6.92615
7.39507
7.88958
8.41084
8.96008
9.53856
10.1476
10.7885
11.4628
12.1719
12.9175
13.7012
14.5248
15.3901
16.2993
17.2543
18.2575
19.3112
20.4179
21.5802
22.8008
24.0826
25.4285
26.8415
28.3247
29.8815
31.5152
33.2292
35.027
36.9122
38.8884
40.9594
43.1289
45.4004
47.7778
50.2646
52.8644
55.5807
58.4167
61.3758
64.4608
67.6747
71.0199
74.4988
78.1133
81.865
85.7552
89.7847
93.9541
98.2631
102.711
107.298
112.022
116.88
121.871
126.992
132.239
137.609
143.097
148.7
154.412
160.229
166.146
172.157
178.257
184.439
190.695
197.019
203.399
209.826
216.287
222.766
229.248
235.68
242.048
248.337
254.533
260.622
266.591
272.426
278.115
283.646
289.009
294.192
299.186
303.98
308.566
312.935
317.079
320.99
324.661
328.085
331.257
334.17
336.819
339.199
341.308
343.144
344.705
345.991
347.001
347.736
348.197
348.385
348.304
347.956
347.347
346.48
345.36
343.991
342.383
340.545
338.484
336.207
333.721
331.032
328.158
325.105
321.883
318.5
314.967
311.296
307.496
303.578
299.552
295.429
291.218
286.93
282.574
278.161
273.7
269.201
264.672
260.122
255.561
250.995
246.434
241.886
237.357
232.858
228.395
223.976
219.607
215.294
211.045
206.869
202.775
198.776
194.886
191.122
187.503
184.049
180.78
177.688
174.82
4.03405
1.9551
1.56994
1.48747
1.50652
1.57531
1.67512
1.79768
1.93883
2.09633
2.26891
2.4559
2.65699
2.87216
3.10157
3.34558
3.60469
3.8795
4.17072
4.47915
4.80564
5.15113
5.51659
5.90306
6.31162
6.7434
7.19959
7.68141
8.19016
8.72717
9.29387
9.89173
10.5223
11.1873
11.8884
12.6274
13.4064
14.2274
15.0927
16.0046
16.9655
17.9781
19.0452
20.1698
21.3548
22.6036
23.9193
25.3057
26.7662
28.3047
29.925
31.6312
33.4274
35.3179
37.3069
39.3989
41.5984
43.9098
46.3375
48.886
51.5597
54.3629
57.2996
60.3738
63.5895
66.9501
70.459
74.1194
77.934
81.9049
86.0343
90.3236
94.7738
99.3853
104.158
109.091
114.184
119.435
124.841
130.399
136.106
141.959
147.951
154.078
160.334
166.714
173.212
179.821
186.536
193.349
200.253
207.24
214.3
221.422
228.592
235.797
243.019
250.207
257.328
264.366
271.306
278.134
284.835
291.394
297.795
304.023
310.068
315.916
321.556
326.977
332.169
337.122
341.826
346.274
350.457
354.368
358
361.349
364.405
367.164
369.621
371.775
373.624
375.168
376.406
377.339
377.967
378.293
378.318
378.046
377.484
376.635
375.506
374.102
372.43
370.5
368.32
365.9
363.248
360.373
357.285
353.996
350.517
346.859
343.032
339.048
334.917
330.653
326.265
321.766
317.165
312.476
307.708
302.872
297.978
293.038
288.061
283.056
278.034
273.003
267.972
262.949
257.944
252.963
248.015
243.108
238.25
233.448
228.708
224.04
219.452
214.955
210.561
206.286
202.144
198.153
194.331
190.692
187.223
183.97
4.09235
1.99552
1.59215
1.49812
1.50842
1.56957
1.66209
1.77728
1.91079
2.06025
2.22436
2.40242
2.59413
2.79947
3.01864
3.25198
3.5
3.76332
4.04266
4.33884
4.65275
4.98535
5.33767
5.71081
6.10592
6.52424
6.96705
7.43571
7.93166
8.45641
9.01157
9.59883
10.22
10.877
11.5719
12.3068
13.0841
13.9061
14.7757
15.6955
16.6684
17.6977
18.7866
19.9386
21.1573
22.4466
23.8104
25.253
26.7788
28.3921
30.0978
31.9006
33.8055
35.8176
37.942
40.184
42.5489
45.042
47.6687
50.4342
53.3437
56.402
59.6139
62.984
66.5166
70.2158
74.0856
78.1292
82.3498
86.7498
91.3314
96.0959
101.044
106.177
111.493
116.992
122.672
128.531
134.565
140.771
147.144
153.68
160.372
167.213
174.196
181.314
188.558
195.924
203.401
210.983
218.661
226.424
234.262
242.162
250.108
258.083
266.042
273.929
281.727
289.421
296.994
304.431
311.717
318.837
325.769
332.499
339.014
345.302
351.35
357.148
362.684
367.948
372.93
377.622
382.015
386.102
389.878
393.339
396.473
399.274
401.741
403.874
405.67
407.131
408.255
409.046
409.504
409.632
409.436
408.918
408.086
406.945
405.502
403.766
401.743
399.444
396.879
394.057
390.989
387.687
384.16
380.421
376.482
372.356
368.053
363.587
358.97
354.214
349.332
344.335
339.236
334.047
328.779
323.444
318.053
312.617
307.146
301.652
296.143
290.629
285.12
279.625
274.151
268.707
263.302
257.944
252.639
247.397
242.225
237.131
232.125
227.219
222.424
217.756
213.228
208.858
204.659
200.643
196.793
193.157
4.09971
2.01512
1.59883
1.49463
1.49636
1.54957
1.63428
1.74152
1.86679
2.00763
2.16271
2.33131
2.51313
2.70816
2.91659
3.13879
3.37529
3.62671
3.89382
4.17745
4.47856
4.79817
5.13739
5.4974
5.87949
6.28499
6.71537
7.17216
7.657
8.17162
8.7179
9.29781
9.91349
10.5672
11.2614
11.9986
12.7817
13.6135
14.4973
15.4365
16.4345
17.4952
18.6225
19.8206
21.0939
22.4471
23.8849
25.4123
27.0347
28.7574
30.586
32.5264
34.5843
36.7659
39.0773
41.5246
44.1142
46.8522
49.7448
52.7982
56.0181
59.4103
62.9794
66.7304
70.6681
74.7969
79.1209
83.6434
88.3676
93.2957
98.4297
103.77
109.318
115.073
121.034
127.198
133.564
140.127
146.883
153.828
160.956
168.261
175.736
183.368
191.149
199.07
207.122
215.297
223.584
231.975
240.459
249.025
257.659
266.347
275.069
283.786
292.421
300.96
309.384
317.676
325.819
333.799
341.6
349.212
356.597
363.746
370.647
377.288
383.657
389.74
395.528
401.009
406.175
411.015
415.523
419.691
423.513
426.985
430.1
432.853
435.242
437.266
438.926
440.22
441.152
441.722
441.935
441.795
441.307
440.475
439.308
437.813
435.998
433.871
431.443
428.724
425.725
422.456
418.93
415.159
411.156
406.932
402.501
397.877
393.071
388.098
382.971
377.703
372.307
366.796
361.183
355.481
349.701
343.857
337.959
332.019
326.049
320.059
314.059
308.059
302.07
296.098
290.155
284.248
278.385
272.575
266.826
261.145
255.542
250.024
244.603
239.288
234.094
229.032
224.119
219.368
214.79
210.397
206.167
202.155
4.06767
2.01767
1.59298
1.48005
1.47361
1.51888
1.59557
1.69459
1.81134
1.94333
2.0892
2.24823
2.42012
2.60487
2.80268
3.01396
3.23925
3.47923
3.73472
4.00663
4.29599
4.60392
4.93167
5.28058
5.65208
6.04775
6.46925
6.9184
7.39711
7.90748
8.45171
9.03221
9.65156
10.3125
11.0181
11.7714
12.5759
13.4353
14.3535
15.3345
16.3829
17.5034
18.7007
19.9802
21.3469
22.8066
24.3652
26.0286
27.8034
29.696
31.713
33.8614
36.1482
38.5803
41.1649
43.9091
46.82
49.9047
53.1702
56.6233
60.2708
64.1187
68.1703
72.4304
76.9039
81.5952
86.5079
91.645
97.0089
102.601
108.423
114.473
120.753
127.259
133.989
140.94
148.107
155.486
163.069
170.852
178.826
186.984
195.323
203.819
212.458
221.232
230.132
239.146
248.264
257.473
266.761
276.114
285.521
294.96
304.382
313.706
322.921
332.005
340.944
349.718
358.311
366.707
374.89
382.843
390.544
397.978
405.131
411.991
418.543
424.777
430.682
436.246
441.462
446.319
450.811
454.931
458.675
462.037
465.013
467.6
469.797
471.601
473.015
474.04
474.678
474.932
474.808
474.311
473.446
472.221
470.644
468.722
466.467
463.887
460.995
457.801
454.316
450.554
446.527
442.249
437.732
432.992
428.04
422.892
417.561
412.062
406.409
400.615
394.694
388.66
382.527
376.307
370.013
363.659
357.255
350.814
344.348
337.867
331.382
324.903
318.44
312.002
305.598
299.236
292.925
286.674
280.491
274.382
268.358
262.428
256.601
250.888
245.302
239.856
234.563
229.437
224.487
219.724
215.124
210.746
4.00853
2.0068
1.57734
1.45714
1.44323
1.4809
1.54979
1.64078
1.74923
1.87267
2.00973
2.15972
2.32236
2.49767
2.68591
2.88754
3.10318
3.33359
3.57969
3.84253
4.12329
4.42329
4.74398
5.08694
5.45393
5.84683
6.2677
6.71876
7.20242
7.72124
8.27802
8.87578
9.5178
10.2076
10.949
11.7461
12.6033
13.5253
14.517
15.5838
16.7314
17.9659
19.2936
20.7209
22.2539
23.8997
25.6654
27.5587
29.5872
31.7586
34.0809
36.562
39.21
42.0327
45.038
48.2338
51.6276
55.2268
59.0386
63.0701
67.3292
71.8258
76.552
81.5137
86.7161
92.1625
97.8556
103.797
109.986
116.424
123.11
130.04
137.213
144.625
152.27
160.143
168.237
176.545
185.059
193.768
202.664
211.735
220.97
230.352
239.867
249.501
259.24
269.071
278.981
288.955
298.98
309.036
319.115
329.133
339.029
348.792
358.406
367.854
377.12
386.187
395.037
403.655
412.023
420.126
427.947
435.468
442.677
449.559
456.103
462.296
468.129
473.592
478.676
483.372
487.675
491.58
495.08
498.174
500.858
503.13
504.989
506.436
507.472
508.1
508.323
508.147
507.577
506.62
505.283
503.573
501.5
499.074
496.306
493.206
489.787
486.061
482.04
477.739
473.17
468.348
463.288
458.003
452.508
446.818
440.948
434.912
428.725
422.401
415.955
409.4
402.751
396.02
389.222
382.368
375.471
368.544
361.597
354.642
347.69
340.751
333.834
326.949
320.104
313.309
306.572
299.901
293.304
286.79
280.366
274.043
267.83
261.737
255.778
249.964
244.308
238.822
233.515
228.396
223.442
218.715
3.93571
1.9859
1.55437
1.42851
1.40826
1.43924
1.5012
1.58505
1.68622
1.80228
1.93193
2.07452
2.22986
2.39804
2.57945
2.77466
2.98443
3.20973
3.45169
3.71163
3.99101
4.29148
4.61488
4.96327
5.33889
5.74425
6.18208
6.65539
7.16741
7.72149
8.32137
8.97116
9.67535
10.4388
11.2666
12.1645
13.1383
14.1944
15.3396
16.581
17.9263
19.3836
20.9618
22.6701
24.513
26.5001
28.6406
30.9437
33.4183
36.0733
38.9176
41.9598
45.2082
48.6711
52.356
56.2703
60.4208
64.8137
69.4547
74.3491
79.5014
84.9153
90.5902
96.5272
102.727
109.191
115.917
122.904
130.15
137.651
145.403
153.4
161.637
170.107
178.802
187.714
196.833
206.149
215.65
225.325
235.161
245.144
255.258
265.489
275.817
286.228
296.704
307.229
317.789
328.364
338.946
349.492
359.899
370.154
380.246
390.164
399.892
409.417
418.723
427.793
436.612
445.165
453.435
461.409
469.07
476.404
483.398
490.037
496.312
502.211
507.725
512.845
517.563
521.872
525.767
529.243
532.297
534.926
537.13
538.907
540.257
541.182
541.685
541.77
541.44
540.703
539.565
538.034
536.118
533.826
531.168
528.155
524.798
521.111
517.104
512.793
508.189
503.308
498.163
492.77
487.142
481.296
475.246
469.007
462.594
456.022
449.306
442.462
435.502
428.441
421.294
414.074
406.793
399.465
392.102
384.717
377.32
369.922
362.535
355.168
347.83
340.532
333.282
326.088
318.958
311.901
304.924
298.036
291.245
284.56
277.991
271.549
265.244
259.089
253.095
247.274
241.633
236.181
230.896
225.844
3.86474
1.95845
1.52666
1.3972
1.37251
1.3987
1.45571
1.53462
1.63099
1.74252
1.86804
2.00708
2.15961
2.32595
2.50672
2.70277
2.91523
3.14545
3.39504
3.66586
3.96002
4.27977
4.62771
5.00682
5.42043
5.87222
6.36631
6.90734
7.50068
8.15056
8.86242
9.64272
10.4983
11.4365
12.4651
13.5924
14.8271
16.1784
17.656
19.2697
21.03
22.9473
25.0324
27.2957
29.7466
32.3951
35.2512
38.3243
41.6236
45.1575
48.9339
52.9601
57.2424
61.7867
66.5976
71.679
77.034
82.6645
88.5717
94.7559
101.216
107.951
114.957
122.23
129.766
137.56
145.608
153.902
162.435
171.201
180.19
189.395
198.807
208.414
218.207
228.175
238.305
248.586
259.003
269.543
280.191
290.93
301.743
312.614
323.522
334.449
345.377
356.279
367.159
377.974
388.626
399.079
409.338
419.4
429.258
438.902
448.322
457.503
466.434
475.099
483.485
491.578
499.365
506.831
513.964
520.75
527.177
533.233
538.908
544.193
549.078
553.557
557.622
561.269
564.491
567.287
569.654
571.591
573.096
574.172
574.818
575.038
574.836
574.216
573.184
571.746
569.911
567.688
565.085
562.112
558.78
555.1
551.086
546.748
542.102
537.16
531.936
526.446
520.702
514.721
508.518
502.107
495.503
488.723
481.78
474.69
467.468
460.127
452.683
445.15
437.54
429.868
422.145
414.386
406.601
398.803
391.002
383.21
375.436
367.69
359.982
352.32
344.712
337.168
329.694
322.298
314.989
307.774
300.661
293.659
286.776
280.025
273.414
266.955
260.66
254.538
248.596
242.844
237.26
231.915
3.81476
1.92778
1.49751
1.36791
1.34247
1.36779
1.4242
1.50306
1.60024
1.71375
1.84274
1.98713
2.14734
2.32422
2.51897
2.7332
2.96884
3.22815
3.51385
3.82928
4.17852
4.56444
4.99167
5.46554
5.99193
6.57732
7.22894
7.95472
8.76332
9.66383
10.6662
11.7815
13.0211
14.3976
15.9237
17.6127
19.4782
21.5338
23.7931
26.2694
28.9757
31.9241
35.126
38.5917
42.3299
46.3483
50.6532
55.2494
60.1406
65.3289
70.815
76.5987
82.6782
89.0507
95.712
102.657
109.88
117.373
125.13
133.141
141.398
149.892
158.613
167.552
176.698
186.043
195.576
205.287
215.165
225.199
235.381
245.698
256.142
266.7
277.362
288.115
298.948
309.848
320.801
331.794
342.811
353.832
364.841
375.825
386.751
397.605
408.39
419.026
429.429
439.584
449.508