/*--------------------------------*- C++ -*----------------------------------*\
| =========                 |                                                 |
| \\      /  F ield         | OpenFOAM Extend Project: Open source CFD        |
|  \\    /   O peration     | Version:  1.6-ext                               |
|   \\  /    A nd           | Web:      www.extend-project.de                 |
|    \\/     M anipulation  |                                                 |
\*---------------------------------------------------------------------------*/
FoamFile
{
    version     2.0;
    format      ascii;
    class       volScalarField;
    location    "0";
    object      Dt;
}
// * * * * * * * * * * * * * * * * * * * * * * * * * * * * * * * * * * * * * //

dimensions      [0 2 -1 0 0 0 0];

internalField   nonuniform List<scalar> 
12225
(
2.91044e-05
2.7527e-05
2.61301e-05
2.49233e-05
2.3907e-05
2.30737e-05
2.24116e-05
2.19059e-05
2.15403e-05
2.12981e-05
2.11624e-05
2.11163e-05
2.11439e-05
2.12303e-05
2.13623e-05
2.15283e-05
2.17186e-05
2.1976e-05
0.000316549
0.000239747
0.000202259
0.000179916
0.000166059
0.000157404
0.000152081
0.000148941
0.000147247
0.0001465
0.000146363
0.000146599
0.000147047
0.0001476
0.000148187
0.000148764
0.000149307
0.00014974
0.000673694
0.000506263
0.000425576
0.000375573
0.0003411
0.000315764
0.000296233
0.000280609
0.000267737
0.00025689
0.000247589
0.000239506
0.000232417
0.000226163
0.00022062
0.000215699
0.000211316
0.000207467
0.000998699
0.000823239
0.000711153
0.000634643
0.00057901
0.000536549
0.000502824
0.000475147
0.000451813
0.000431703
0.000414057
0.000398353
0.000384223
0.000371407
0.000359723
0.000349039
0.000339271
0.000330489
0.00115313
0.00105897
0.000970647
0.000896044
0.000834553
0.000783816
0.000741481
0.000705636
0.000674826
0.000647969
0.000624251
0.000603071
0.000583973
0.000566611
0.000550734
0.000536154
0.000522749
0.000510579
0.00120138
0.00116739
0.00112381
0.0010776
0.00103276
0.000991143
0.000953327
0.000919254
0.000888611
0.000861007
0.00083605
0.000813389
0.000792719
0.000773781
0.000756367
0.00074031
0.000725491
0.000711979
0.00121356
0.0012039
0.00118838
0.00116838
0.00114561
0.00112157
0.00109734
0.00107363
0.00105085
0.00102921
0.00100881
0.00098964
0.00097168
0.00095487
0.000939144
0.00092444
0.000910707
0.000898054
0.00121593
0.00121266
0.00120685
0.00119843
0.00118773
0.0011753
0.0011617
0.00114743
0.00113288
0.00111836
0.00110408
0.00109018
0.00107675
0.00106387
0.00105155
0.00103981
0.00102867
0.00101828
0.00121652
0.00121519
0.00121296
0.00120957
0.00120494
0.00119913
0.00119232
0.0011847
0.00117648
0.00116786
0.001159
0.00115006
0.00114113
0.00113231
0.00112365
0.00111523
0.00110707
0.00109934
0.00121666
0.00121591
0.00121493
0.00121358
0.00121177
0.00120943
0.00120655
0.00120316
0.00119932
0.00119509
0.00119056
0.00118578
0.00118084
0.00117579
0.00117068
0.00116558
0.00116052
0.00115562
0.00121668
0.00121606
0.00121541
0.00121471
0.00121388
0.00121291
0.00121175
0.00121038
0.00120881
0.00120704
0.00120508
0.00120295
0.00120068
0.00119829
0.0011958
0.00119324
0.00119064
0.00118806
0.00121668
0.00121607
0.0012155
0.00121493
0.00121437
0.00121379
0.00121318
0.00121253
0.00121182
0.00121106
0.00121023
0.00120934
0.00120839
0.00120738
0.00120632
0.00120522
0.00120408
0.00120293
0.00121667
0.00121607
0.0012155
0.00121495
0.00121443
0.00121393
0.00121345
0.00121298
0.00121251
0.00121204
0.00121157
0.0012111
0.00121062
0.00121013
0.00120963
0.00120912
0.0012086
0.0012081
0.00121667
0.00121606
0.00121549
0.00121494
0.00121442
0.00121393
0.00121347
0.00121302
0.0012126
0.00121219
0.0012118
0.00121142
0.00121105
0.0012107
0.00121035
0.00121001
0.00120968
0.00120938
0.00121667
0.00121606
0.00121548
0.00121493
0.00121441
0.00121392
0.00121345
0.00121301
0.00121258
0.00121218
0.0012118
0.00121143
0.00121108
0.00121075
0.00121043
0.00121012
0.00120983
0.00120957
0.00121666
0.00121605
0.00121547
0.00121492
0.0012144
0.00121391
0.00121344
0.00121299
0.00121256
0.00121216
0.00121177
0.0012114
0.00121105
0.00121072
0.0012104
0.00121009
0.00120981
0.00120955
0.00121666
0.00121605
0.00121547
0.00121492
0.00121439
0.0012139
0.00121342
0.00121298
0.00121255
0.00121214
0.00121175
0.00121138
0.00121103
0.00121069
0.00121037
0.00121006
0.00120977
0.00120952
0.00121666
0.00121605
0.00121547
0.00121491
0.00121439
0.00121389
0.00121342
0.00121297
0.00121254
0.00121213
0.00121174
0.00121137
0.00121102
0.00121068
0.00121036
0.00121005
0.00120976
0.0012095
0.00121666
0.00121605
0.00121547
0.00121492
0.00121439
0.00121389
0.00121342
0.00121297
0.00121254
0.00121213
0.00121174
0.00121137
0.00121101
0.00121067
0.00121035
0.00121004
0.00120975
0.00120949
0.00121666
0.00121605
0.00121547
0.00121492
0.00121439
0.0012139
0.00121342
0.00121297
0.00121254
0.00121213
0.00121174
0.00121136
0.001211
0.00121066
0.00121033
0.00121001
0.0012097
0.00120943
0.00121666
0.00121605
0.00121547
0.00121492
0.0012144
0.0012139
0.00121342
0.00121296
0.00121251
0.00121208
0.00121165
0.00121124
0.00121083
0.00121043
0.00121003
0.00120964
0.00120925
0.00120889
0.00121667
0.00121605
0.00121547
0.00121491
0.00121435
0.0012138
0.00121324
0.00121267
0.00121207
0.00121145
0.0012108
0.00121011
0.0012094
0.00120866
0.00120789
0.00120709
0.00120628
0.00120547
0.00121666
0.00121602
0.00121536
0.00121463
0.00121379
0.00121281
0.00121167
0.00121036
0.00120889
0.00120725
0.00120546
0.00120353
0.0012015
0.00119937
0.00119716
0.0011949
0.0011926
0.00119032
0.00121659
0.00121563
0.00121423
0.00121225
0.00120959
0.00120627
0.00120232
0.00119783
0.0011929
0.00118762
0.0011821
0.00117642
0.00117065
0.00116485
0.00115907
0.00115336
0.00114775
0.00114231
0.00121579
0.00121227
0.00120626
0.00119784
0.00118742
0.00117554
0.00116272
0.00114942
0.00113598
0.00112266
0.00110963
0.00109701
0.00108488
0.00107327
0.00106221
0.00105169
0.00104171
0.00103232
0.00120927
0.00119084
0.00116502
0.00113538
0.00110461
0.00107443
0.00104578
0.00101908
0.000994449
0.000971839
0.000951129
0.000932164
0.00091478
0.00089882
0.000884137
0.000870599
0.000858093
0.000846587
0.00116722
0.00109127
0.0010173
0.00095262
0.00089786
0.00085187
0.00081312
0.000780207
0.000751987
0.00072756
0.000706219
0.000687411
0.000670707
0.000655761
0.0006423
0.000630104
0.000618999
0.00060889
0.000972869
0.000803933
0.000699069
0.000627769
0.000576319
0.000537627
0.000507531
0.000483459
0.000463756
0.000447321
0.000433387
0.000421409
0.000410987
0.000401824
0.000393694
0.000386426
0.000379886
0.000373999
0.000492003
0.000369486
0.000313234
0.000279111
0.000256437
0.000240647
0.000229303
0.000220989
0.000214824
0.000210236
0.000206824
0.000204309
0.000202481
0.000201183
0.000200299
0.000199733
0.000199416
0.000199314
4.15326e-05
3.94854e-05
3.77216e-05
3.61897e-05
3.48546e-05
3.36897e-05
3.26739e-05
3.1789e-05
3.10193e-05
3.03513e-05
2.97733e-05
2.92749e-05
2.88469e-05
2.84814e-05
2.81714e-05
2.79103e-05
2.76923e-05
2.75127e-05
3.87956e-06
1.087e-05
1.23976e-05
1.34434e-05
1.43976e-05
1.53619e-05
1.63326e-05
1.73847e-05
1.85e-05
1.96137e-05
2.07447e-05
2.18873e-05
2.3034e-05
2.41793e-05
2.532e-05
2.64543e-05
2.75814e-05
2.87011e-05
2.98139e-05
3.09203e-05
3.20214e-05
3.31181e-05
3.42119e-05
3.53037e-05
3.63954e-05
3.74886e-05
3.8585e-05
3.96873e-05
4.07981e-05
4.19207e-05
4.30591e-05
4.42184e-05
4.5405e-05
4.66264e-05
4.78929e-05
4.92166e-05
5.06134e-05
5.21034e-05
5.3712e-05
5.54714e-05
5.74224e-05
5.96173e-05
6.21226e-05
6.50233e-05
6.8429e-05
6.99231e-05
7.13271e-05
7.27307e-05
7.41383e-05
7.55506e-05
7.69676e-05
7.8389e-05
7.9815e-05
8.12453e-05
8.26796e-05
8.41176e-05
8.55591e-05
8.70037e-05
8.84511e-05
8.99007e-05
9.13521e-05
9.28047e-05
9.42583e-05
9.57119e-05
9.71651e-05
9.86174e-05
0.000100068
0.000101516
0.000102962
0.000104403
0.000105841
0.000107273
0.000108699
0.000110118
0.00011153
0.000112933
0.000114327
0.000115712
0.000117085
0.000118446
0.000119795
0.00012113
0.00012245
0.000123755
0.000125043
0.000126313
0.000127564
0.000128795
0.000130005
0.000131192
0.000132356
0.000133496
0.000134609
0.000135696
0.000136756
0.000137787
0.000138789
0.000139763
0.000140709
0.000141629
0.000142526
0.000143406
0.000144253
0.000145063
0.000145834
0.000146567
0.000147261
0.000147919
0.000148536
0.000149113
0.000149651
0.00015015
0.00015061
0.000151029
0.000151407
0.000151746
0.000152044
0.000152301
0.000152519
0.000152696
0.000152831
0.000152927
0.000152981
0.000152997
0.000152971
0.000152906
0.000152801
0.000152657
0.000152474
0.000152253
0.000151993
0.000151696
0.00015136
0.000150989
0.000150581
0.000150139
0.00014966
0.000149149
0.000148604
0.000148027
0.000147417
0.000146779
0.000146109
0.00014541
0.000144683
0.00014393
0.000143151
0.000142346
0.000141518
0.000140667
0.000139794
0.000138901
0.000137988
0.000137057
0.000136108
0.000135144
0.000134163
0.000133169
0.000132163
0.000131144
0.000130116
0.000129077
0.000128026
0.000126982
0.000125965
0.00012516
0.000124541
0.000123945
0.000123353
0.000122765
0.000122177
0.00012159
0.000121003
0.000120411
0.000119811
0.000119187
0.000118521
0.000117737
0.000116757
0.000114954
5.57593e-06
3.18384e-05
5.91864e-05
7.78877e-05
8.84753e-05
9.43797e-05
9.83924e-05
0.000101991
0.000105896
0.000110362
0.000115366
0.000120832
0.000126696
0.000132901
0.000139404
0.000146167
0.000153156
0.000160344
0.000167706
0.000175216
0.000182856
0.000190604
0.000198444
0.000206357
0.000214326
0.000222331
0.000230357
0.00023838
0.000246383
0.000254343
0.000262236
0.000270037
0.000277723
0.000285264
0.000292637
0.000299814
0.00030678
0.000313519
0.000320031
0.00032634
0.000332497
0.000338601
0.000344829
0.000351476
0.000359046
0.000368439
0.000378259
0.000388237
0.000398346
0.000408587
0.000418966
0.000429487
0.000440156
0.000450973
0.000461943
0.000473066
0.000484343
0.000495777
0.000507367
0.000519113
0.000531014
0.000543071
0.000555283
0.000567646
0.000580159
0.000592819
0.000605623
0.00061857
0.000631656
0.000644876
0.000658226
0.000671703
0.000685301
0.000699017
0.000712847
0.000726784
0.000740824
0.000754963
0.000769194
0.000783514
0.000797914
0.000812391
0.000826939
0.000841549
0.000856214
0.000870927
0.000885679
0.000900457
0.000915251
0.000930046
0.000944827
0.000959576
0.000974271
0.00098889
0.00100341
0.00101779
0.001032
0.00104601
0.00105977
0.00107324
0.00108636
0.00109878
0.00111068
0.0011223
0.00113367
0.00114479
0.00115566
0.00116626
0.0011766
0.00118667
0.00119645
0.00120596
0.00121518
0.0012241
0.00123273
0.00124105
0.00124906
0.00125675
0.00126413
0.00127118
0.00127791
0.0012843
0.00129035
0.00129607
0.00130144
0.00130648
0.00131116
0.00131551
0.0013195
0.00132314
0.00132644
0.00132939
0.00133198
0.00133424
0.00133614
0.00133771
0.00133894
0.00133983
0.00134039
0.00134062
0.00134053
0.00134012
0.0013394
0.00133837
0.00133704
0.00133541
0.00133351
0.00133132
0.00132886
0.00132615
0.00132318
0.00131996
0.00131652
0.00131285
0.00130896
0.00130487
0.00130059
0.00129612
0.00129149
0.00128669
0.00128173
0.00127668
0.00127145
0.00126593
0.00125989
0.00125171
0.0012416
0.00123091
0.00122001
0.00120902
0.001198
0.00118695
0.00117588
0.00116479
0.00115366
0.00114245
0.00113106
0.00111933
0.00110599
0.0010798
7.17499e-06
5.10783e-05
9.59009e-05
0.000125907
0.000145061
0.000157707
0.000167076
0.000175249
0.000183389
0.000192033
0.000201351
0.000211354
0.000221989
0.000233191
0.000244897
0.000257051
0.000269599
0.000282496
0.000295701
0.000309176
0.000322887
0.000336804
0.0003509
0.000365147
0.000379523
0.000394006
0.000408573
0.000423207
0.00043789
0.000452609
0.00046735
0.000482103
0.000496863
0.000511631
0.000526413
0.000541224
0.000556093
0.00057106
0.000586183
0.000601541
0.000617237
0.000633396
0.000650161
0.00066768
0.000686061
0.000705284
0.000724977
0.000745
0.000765321
0.000785943
0.000806869
0.000828106
0.000849661
0.00087154
0.000893746
0.000916283
0.000939153
0.000962359
0.000985897
0.00100977
0.00103398
0.00105852
0.00108338
0.00110857
0.00113408
0.0011599
0.00118603
0.00121245
0.00123916
0.00126616
0.00129342
0.00132095
0.00134872
0.00137674
0.00140497
0.00143343
0.00146207
0.0014909
0.00151991
0.00154907
0.00157837
0.0016078
0.00163734
0.00166696
0.00169666
0.00172641
0.00175619
0.00178597
0.00181573
0.00184544
0.00187506
0.00190456
0.00193389
0.001963
0.00199186
0.00202039
0.00204854
0.00207627
0.00210347
0.0021301
0.00215607
0.00218099
0.00220521
0.00222889
0.00225201
0.00227461
0.00229666
0.00231816
0.00233909
0.00235944
0.00237921
0.0023984
0.00241696
0.00243491
0.00245223
0.0024689
0.00248494
0.00250031
0.00251501
0.00252904
0.00254239
0.00255503
0.00256697
0.00257821
0.00258874
0.00259857
0.00260767
0.00261606
0.00262371
0.00263066
0.00263687
0.00264237
0.00264714
0.0026512
0.00265454
0.00265719
0.00265913
0.00266037
0.00266093
0.0026608
0.00266001
0.00265857
0.00265647
0.00265376
0.0026504
0.00264646
0.00264193
0.0026368
0.00263113
0.00262493
0.00261819
0.00261096
0.00260323
0.00259504
0.00258641
0.00257737
0.00256793
0.0025581
0.00254794
0.00253746
0.00252667
0.00251564
0.00250431
0.00249249
0.00247983
0.00246523
0.00244857
0.00243094
0.00241281
0.00239443
0.00237589
0.00235723
0.00233847
0.00231963
0.00230064
0.0022814
0.00226159
0.00224053
0.00221573
0.00217537
8.51706e-06
6.51581e-05
0.000123466
0.000164414
0.000192031
0.000211333
0.000226097
0.000238843
0.000251076
0.000263597
0.000276759
0.00029067
0.00030533
0.000320687
0.000336679
0.000353239
0.000370309
0.000387834
0.000405769
0.00042407
0.0004427
0.000461629
0.000480826
0.00050027
0.000519939
0.000539819
0.000559893
0.000580156
0.000600601
0.000621229
0.000642041
0.000663046
0.00068426
0.000705701
0.000727399
0.000749386
0.000771706
0.00079441
0.000817556
0.000841204
0.000865421
0.000890269
0.000915791
0.000942013
0.000968911
0.000996417
0.00102443
0.00105288
0.00108177
0.0011111
0.00114086
0.00117107
0.00120173
0.00123286
0.00126445
0.0012965
0.00132903
0.00136202
0.00139549
0.00142943
0.00146383
0.00149869
0.001534
0.00156976
0.00160594
0.00164257
0.00167961
0.00171706
0.00175489
0.00179309
0.00183164
0.00187056
0.00190977
0.0019493
0.00198911
0.00202917
0.00206947
0.00211
0.0021507
0.00219159
0.0022326
0.00227373
0.00231494
0.00235621
0.00239751
0.00243881
0.00248007
0.00252127
0.00256236
0.0026033
0.00264404
0.00268454
0.00272474
0.0027646
0.00280406
0.00284303
0.00288146
0.00291929
0.00295643
0.00299283
0.00302829
0.0030627
0.00309626
0.00312904
0.0031611
0.0031924
0.00322293
0.0032527
0.00328169
0.00330987
0.00333723
0.00336377
0.00338949
0.00341433
0.00343831
0.00346141
0.00348363
0.00350493
0.00352531
0.00354477
0.00356329
0.00358084
0.00359744
0.00361309
0.00362776
0.00364144
0.00365416
0.00366587
0.00367661
0.00368636
0.0036951
0.00370287
0.00370964
0.00371543
0.00372024
0.00372409
0.00372697
0.0037289
0.00372987
0.00372991
0.00372904
0.00372726
0.00372459
0.00372103
0.00371661
0.00371137
0.0037053
0.00369841
0.00369077
0.00368236
0.00367323
0.00366337
0.00365286
0.00364167
0.00362987
0.00361747
0.00360451
0.00359103
0.00357706
0.00356264
0.00354779
0.00353253
0.00351684
0.00350054
0.0034834
0.00346477
0.00344451
0.0034232
0.00340123
0.00337886
0.00335621
0.00333339
0.0033104
0.00328726
0.00326391
0.0032402
0.00321574
0.00318957
0.00315896
0.00311507
9.5188e-06
7.57156e-05
0.000146
0.000197034
0.000232711
0.000258466
0.000278476
0.000295607
0.000311664
0.000327686
0.000344201
0.000361437
0.000379457
0.000398244
0.000417747
0.000437909
0.000458667
0.000479969
0.000501767
0.000524019
0.000546689
0.000569749
0.000593171
0.000616941
0.000641041
0.000665464
0.000690203
0.000715256
0.00074063
0.00076633
0.00079237
0.000818767
0.000845541
0.000872721
0.000900336
0.000928419
0.000957006
0.000986136
0.00101585
0.00104617
0.00107714
0.00110878
0.00114108
0.00117404
0.00120763
0.00124181
0.00127655
0.00131182
0.00134762
0.00138396
0.00142083
0.00145826
0.00149623
0.00153476
0.00157386
0.00161351
0.00165373
0.00169451
0.00173587
0.00177777
0.00182023
0.00186323
0.00190676
0.00195081
0.00199539
0.00204044
0.00208599
0.00213199
0.00217844
0.00222531
0.00227259
0.00232023
0.00236823
0.00241654
0.00246516
0.00251404
0.00256316
0.00261247
0.00266196
0.00271159
0.00276131
0.00281111
0.00286094
0.00291076
0.00296054
0.00301023
0.0030598
0.00310921
0.00315841
0.00320736
0.00325601
0.0033043
0.00335219
0.00339961
0.0034465
0.00349281
0.00353846
0.00358339
0.00362753
0.00367083
0.00371296
0.00375406
0.00379421
0.0038335
0.00387189
0.0039094
0.003946
0.0039817
0.00401647
0.0040503
0.00408317
0.00411507
0.00414599
0.00417589
0.00420479
0.00423264
0.00425946
0.00428521
0.00430989
0.00433349
0.00435597
0.00437734
0.0043976
0.00441673
0.00443471
0.00445154
0.00446724
0.00448177
0.00449516
0.00450737
0.00451841
0.00452831
0.00453704
0.00454461
0.00455103
0.00455631
0.00456046
0.00456347
0.00456536
0.00456614
0.00456584
0.00456446
0.00456201
0.00455853
0.00455401
0.0045485
0.00454201
0.00453454
0.00452614
0.00451684
0.00450666
0.0044956
0.00448373
0.00447106
0.00445763
0.00444347
0.00442863
0.00441314
0.00439703
0.00438036
0.00436314
0.0043454
0.00432711
0.0043082
0.00428847
0.00426759
0.00424543
0.0042223
0.00419847
0.00417416
0.0041495
0.00412459
0.00409947
0.00407419
0.0040487
0.00402284
0.00399626
0.00396797
0.00393564
0.00389347
1.02239e-05
8.4234e-05
0.000164549
0.000224576
0.000267774
0.000299716
0.000324816
0.000346186
0.000365866
0.000385106
0.000404606
0.000424714
0.000445576
0.000467221
0.000489629
0.000512754
0.000536544
0.000560951
0.000585929
0.000611439
0.000637447
0.000663931
0.000690869
0.000718244
0.00074605
0.000774279
0.000802931
0.000832011
0.000861526
0.000891486
0.000921907
0.000952809
0.000984209
0.00101613
0.00104861
0.00108165
0.0011153
0.00114956
0.00118447
0.00122005
0.00125629
0.0012932
0.00133078
0.00136901
0.00140788
0.00144737
0.00148746
0.00152816
0.00156944
0.00161134
0.00165384
0.00169696
0.00174069
0.00178504
0.00183001
0.00187561
0.00192184
0.0019687
0.00201617
0.00206424
0.00211293
0.0021622
0.00221206
0.00226247
0.00231344
0.00236494
0.00241694
0.00246944
0.00252241
0.00257581
0.00262964
0.00268384
0.0027384
0.00279327
0.00284843
0.00290383
0.00295944
0.00301523
0.00307116
0.00312716
0.00318323
0.00323929
0.00329533
0.00335129
0.00340711
0.00346279
0.00351823
0.00357343
0.00362833
0.00368287
0.00373703
0.00379073
0.00384393
0.00389657
0.00394861
0.00399997
0.0040506
0.00410043
0.00414939
0.00419739
0.00424421
0.00428999
0.00433479
0.00437861
0.00442149
0.0044634
0.00450434
0.00454429
0.00458321
0.00462113
0.00465801
0.00469383
0.00472859
0.00476226
0.00479481
0.00482626
0.00485657
0.00488573
0.00491371
0.00494053
0.00496616
0.00499056
0.00501374
0.00503571
0.00505644
0.00507591
0.00509416
0.00511113
0.00512684
0.00514129
0.00515446
0.00516637
0.005177
0.00518639
0.0051945
0.00520136
0.00520697
0.00521134
0.00521449
0.00521641
0.00521714
0.00521669
0.00521504
0.00521224
0.0052083
0.00520326
0.00519711
0.00518989
0.00518163
0.00517234
0.00516206
0.00515081
0.00513863
0.00512554
0.0051116
0.00509683
0.00508127
0.00506497
0.00504796
0.00503029
0.00501197
0.00499304
0.0049735
0.00495329
0.0049323
0.00491039
0.00488744
0.00486363
0.00483911
0.00481409
0.00478866
0.00476294
0.00473701
0.00471091
0.00468466
0.00465813
0.004631
0.00460249
0.00457074
0.00453214
1.07542e-05
9.08389e-05
0.000179456
0.000247401
0.0002975
0.000335276
0.000365254
0.000390701
0.000413836
0.00043608
0.000458286
0.000480923
0.000504224
0.00052828
0.000553107
0.000578683
0.000604969
0.000631926
0.000659514
0.0006877
0.000716456
0.000745757
0.000775587
0.000805934
0.000836793
0.000868159
0.000900034
0.000932423
0.000965334
0.000998779
0.00103277
0.00106732
0.00110245
0.00113818
0.00117452
0.00121149
0.00124911
0.00128739
0.00132635
0.00136597
0.00140628
0.00144726
0.00148891
0.00153123
0.0015742
0.00161781
0.00166207
0.00170697
0.0017525
0.00179869
0.00184551
0.001893
0.00194113
0.00198993
0.00203939
0.0020895
0.00214029
0.00219171
0.00224379
0.00229649
0.00234983
0.00240379
0.00245834
0.00251347
0.00256917
0.00262543
0.0026822
0.00273947
0.00279721
0.00285539
0.00291399
0.00297294
0.00303226
0.00309187
0.00315176
0.00321186
0.00327216
0.00333259
0.0033931
0.00345367
0.00351424
0.00357477
0.0036352
0.00369547
0.00375557
0.00381541
0.00387497
0.0039342
0.00399304
0.00405146
0.0041094
0.00416683
0.00422367
0.0042799
0.00433546
0.00439029
0.00444433
0.00449753
0.00454983
0.00460106
0.00465117
0.00470024
0.00474833
0.00479543
0.00484154
0.00488666
0.00493077
0.00497386
0.00501589
0.00505687
0.00509677
0.00513559
0.00517329
0.00520986
0.00524529
0.00527954
0.00531263
0.00534451
0.00537519
0.00540464
0.00543283
0.00545977
0.00548543
0.00550981
0.0055329
0.0055547
0.00557519
0.00559434
0.00561219
0.0056287
0.00564389
0.00565773
0.00567024
0.00568143
0.0056913
0.00569983
0.00570706
0.00571296
0.00571757
0.00572089
0.00572294
0.00572373
0.00572324
0.00572154
0.00571864
0.00571454
0.00570926
0.00570281
0.00569527
0.00568661
0.00567687
0.0056661
0.0056543
0.00564154
0.00562784
0.00561323
0.00559777
0.00558149
0.00556443
0.00554661
0.0055281
0.0055089
0.00548901
0.00546844
0.00544713
0.00542499
0.00540199
0.00537819
0.00535373
0.00532871
0.0053033
0.00527757
0.00525164
0.00522557
0.0051994
0.00517307
0.00514636
0.00511866
0.00508857
0.00505387
1.11481e-05
9.58087e-05
0.000191113
0.000265889
0.000322197
0.000365373
0.000399944
0.000429264
0.000455673
0.000480727
0.000505409
0.000530297
0.000555714
0.000581814
0.000608657
0.000636251
0.000664579
0.00069361
0.000723316
0.000753667
0.000784639
0.000816213
0.000848373
0.000881111
0.00091442
0.000948299
0.000982747
0.00101777
0.00105337
0.00108957
0.00112636
0.00116377
0.0012018
0.00124046
0.00127978
0.00131975
0.00136038
0.00140169
0.00144369
0.00148634
0.00152969
0.00157371
0.0016184
0.00166376
0.00170979
0.00175646
0.0018038
0.0018518
0.00190046
0.00194977
0.00199976
0.00205041
0.00210174
0.00215374
0.00220643
0.00225977
0.0023138
0.00236847
0.00242381
0.0024798
0.00253641
0.00259364
0.0026515
0.00270993
0.00276893
0.00282849
0.00288857
0.00294914
0.00301019
0.00307167
0.00313357
0.00319583
0.00325843
0.00332133
0.00338449
0.00344784
0.00351137
0.00357501
0.00363873
0.00370246
0.00376616
0.00382977
0.00389324
0.00395653
0.00401957
0.00408231
0.00414471
0.00420673
0.00426829
0.00432937
0.00438993
0.0044499
0.00450926
0.00456794
0.00462593
0.00468316
0.00473957
0.00479511
0.00484974
0.00490326
0.00495576
0.00500726
0.00505779
0.00510733
0.00515591
0.00520349
0.00525006
0.00529559
0.00534007
0.0053835
0.00542583
0.00546706
0.00550716
0.00554613
0.00558393
0.00562056
0.00565599
0.0056902
0.00572317
0.00575489
0.00578534
0.0058145
0.00584237
0.00586891
0.00589414
0.00591806
0.00594061
0.00596183
0.00598169
0.00600017
0.00601729
0.00603304
0.00604741
0.00606043
0.00607207
0.00608236
0.00609127
0.00609883
0.00610504
0.00610993
0.0061135
0.00611576
0.00611669
0.00611634
0.00611476
0.00611193
0.00610784
0.00610254
0.00609609
0.00608846
0.0060797
0.00606986
0.00605894
0.00604701
0.00603409
0.0060202
0.00600539
0.0059897
0.00597317
0.00595584
0.00593773
0.00591889
0.00589931
0.00587903
0.005858
0.00583621
0.00581364
0.00579033
0.00576637
0.00574187
0.00571694
0.00569171
0.00566627
0.00564073
0.00561516
0.00558956
0.00556379
0.00553741
0.00550937
0.00547824
1.14313e-05
9.94e-05
0.000199903
0.000280439
0.000342229
0.000390307
0.000429127
0.000462067
0.000491541
0.000519206
0.000546146
0.000573041
0.000600294
0.000628121
0.000656633
0.000685869
0.000715833
0.000746513
0.000777889
0.000809939
0.000842641
0.000875983
0.000909949
0.000944529
0.000979719
0.00101552
0.00105192
0.00108894
0.00112656
0.00116481
0.00120369
0.00124319
0.00128334
0.00132414
0.00136559
0.0014077
0.00145049
0.00149393
0.00153804
0.00158281
0.00162827
0.00167437
0.00172114
0.00176857
0.00181666
0.0018654
0.0019148
0.00196486
0.00201557
0.00206694
0.002119
0.0021717
0.00222509
0.00227914
0.00233386
0.00238926
0.00244531
0.00250203
0.00255939
0.0026174
0.00267604
0.00273531
0.00279519
0.00285566
0.0029167
0.00297829
0.0030404
0.00310303
0.00316613
0.00322967
0.00329363
0.00335797
0.00342266
0.00348766
0.0035529
0.00361837
0.003684
0.00374976
0.00381559
0.00388141
0.00394721
0.00401291
0.00407847
0.0041438
0.00420887
0.00427363
0.004338
0.00440194
0.00446541
0.00452836
0.00459074
0.0046525
0.00471363
0.00477406
0.00483376
0.00489269
0.00495079
0.00500803
0.00506431
0.00511961
0.00517396
0.00522737
0.00527986
0.0053314
0.00538199
0.0054316
0.00548021
0.00552781
0.00557439
0.0056199
0.00566433
0.00570767
0.00574989
0.00579096
0.00583087
0.00586961
0.00590714
0.00594347
0.00597854
0.00601236
0.00604487
0.0060761
0.00610603
0.00613461
0.00616187
0.00618779
0.00621234
0.00623554
0.00625736
0.00627779
0.00629681
0.00631446
0.0063307
0.00634556
0.00635906
0.00637114
0.00638183
0.00639111
0.00639904
0.0064056
0.00641087
0.00641473
0.00641726
0.00641846
0.00641837
0.006417
0.00641437
0.00641049
0.0064054
0.00639913
0.00639169
0.00638311
0.00637343
0.00636269
0.00635091
0.00633813
0.00632439
0.0063097
0.00629414
0.00627771
0.00626047
0.00624244
0.00622364
0.00620409
0.00618379
0.00616274
0.00614096
0.00611847
0.00609534
0.00607167
0.00604757
0.00602314
0.00599853
0.00597384
0.00594917
0.0059246
0.00590001
0.00587514
0.00584919
0.00582114
1.16237e-05
0.000101834
0.000206193
0.000291453
0.000357986
0.000410436
0.000453116
0.00048938
0.000521677
0.000551734
0.000580716
0.000609383
0.00063821
0.000667477
0.000697339
0.000727869
0.000759099
0.000791033
0.00082366
0.000856967
0.00089094
0.000925564
0.000960829
0.000996723
0.00103324
0.00107038
0.00110814
0.00114652
0.00118552
0.00122514
0.00126539
0.00130627
0.00134779
0.00138994
0.00143273
0.00147616
0.00152023
0.00156494
0.0016103
0.0016563
0.00170294
0.00175021
0.00179811
0.00184666
0.00189584
0.00194564
0.00199609
0.00204717
0.00209889
0.00215126
0.00220427
0.00225793
0.00231224
0.00236721
0.00242284
0.00247913
0.00253606
0.00259364
0.00265187
0.00271076
0.00277026
0.0028304
0.00289114
0.00295249
0.00301441
0.00307691
0.00313997
0.00320354
0.00326761
0.00333217
0.00339717
0.00346259
0.00352837
0.0035945
0.00366091
0.0037276
0.00379447
0.00386151
0.00392864
0.00399581
0.00406299
0.00413007
0.00419701
0.00426377
0.00433027
0.00439644
0.00446223
0.00452757
0.00459243
0.00465676
0.00472049
0.00478359
0.00484601
0.00490776
0.00496874
0.00502896
0.00508837
0.00514691
0.00520457
0.00526137
0.00531731
0.00537239
0.00542657
0.00547989
0.00553227
0.00558371
0.0056342
0.0056837
0.00573217
0.00577961
0.005826
0.0058713
0.0059155
0.00595856
0.00600047
0.0060412
0.00608074
0.00611909
0.00615617
0.00619199
0.00622653
0.00625976
0.00629167
0.00632224
0.00635149
0.00637937
0.00640591
0.00643109
0.00645487
0.00647724
0.0064982
0.00651774
0.00653589
0.00655264
0.00656803
0.00658199
0.00659451
0.00660563
0.00661536
0.00662371
0.0066307
0.00663631
0.00664057
0.00664349
0.0066451
0.0066454
0.00664441
0.00664219
0.0066387
0.00663401
0.00662814
0.0066211
0.00661293
0.00660367
0.00659333
0.00658196
0.00656959
0.00655624
0.00654197
0.0065268
0.00651076
0.00649389
0.0064762
0.00645773
0.0064385
0.00641851
0.0063978
0.00637637
0.00635433
0.00633171
0.00630867
0.00628529
0.00626171
0.00623809
0.00621453
0.00619111
0.00616784
0.0061445
0.00612047
0.00609503
1.17413e-05
0.000103304
0.000210323
0.000299331
0.000369874
0.000426149
0.000472271
0.00051153
0.00054638
0.000578587
0.000609377
0.000639576
0.000669721
0.000700147
0.000731051
0.000762544
0.000794681
0.000827483
0.000860953
0.000895086
0.000929869
0.000965294
0.00100135
0.00103803
0.00107532
0.00111321
0.00115172
0.00119083
0.00123053
0.00127084
0.00131175
0.00135325
0.00139536
0.00143807
0.00148137
0.00152527
0.00156977
0.00161487
0.00166057
0.00170686
0.00175373
0.00180119
0.00184924
0.00189789
0.00194713
0.00199694
0.00204737
0.0020984
0.00215003
0.00220227
0.00225513
0.00230861
0.00236271
0.00241747
0.00247284
0.00252887
0.00258556
0.00264287
0.00270084
0.00275947
0.00281874
0.00287866
0.00293921
0.0030004
0.0030622
0.00312463
0.00318764
0.00325123
0.00331539
0.00338007
0.00344527
0.00351096
0.00357709
0.00364361
0.00371053
0.00377776
0.00384526
0.003913
0.0039809
0.0040489
0.00411696
0.004185
0.00425294
0.00432073
0.0043883
0.00445557
0.00452249
0.00458896
0.00465494
0.0047204
0.00478524
0.00484946
0.00491299
0.00497581
0.00503789
0.00509919
0.00515967
0.0052194
0.00527839
0.00533663
0.00539409
0.00545076
0.00550661
0.00556163
0.00561576
0.005669
0.0057213
0.00577264
0.005823
0.00587234
0.00592064
0.00596787
0.00601401
0.00605903
0.00610291
0.00614563
0.00618716
0.0062275
0.00626659
0.00630441
0.00634094
0.00637616
0.00641007
0.00644264
0.00647387
0.00650376
0.00653227
0.00655947
0.00658523
0.00660957
0.0066325
0.006654
0.0066741
0.00669279
0.00671009
0.00672596
0.0067404
0.00675344
0.00676509
0.00677534
0.00678421
0.00679171
0.00679786
0.00680266
0.00680613
0.00680829
0.00680914
0.00680874
0.00680709
0.00680419
0.0068001
0.00679483
0.0067884
0.00678086
0.00677221
0.00676251
0.00675177
0.00674003
0.00672733
0.00671367
0.00669913
0.00668369
0.00666741
0.00665031
0.00663243
0.00661377
0.00659436
0.00657423
0.00655347
0.00653213
0.00651033
0.00648817
0.00646581
0.0064434
0.00642106
0.00639891
0.00637699
0.00635514
0.00633284
0.00630959
1.17976e-05
0.00010398
0.000212614
0.000304464
0.000378303
0.000437849
0.000486979
0.000528877
0.000565979
0.000600066
0.000632409
0.000663881
0.000695074
0.000726369
0.000758001
0.000790116
0.000822789
0.000856061
0.000889949
0.000924451
0.000959566
0.00099528
0.00103159
0.00106848
0.00110594
0.00114397
0.00118256
0.0012217
0.00126139
0.00130163
0.00134241
0.00138372
0.00142558
0.00146796
0.00151087
0.00155431
0.00159829
0.00164277
0.00168779
0.00173331
0.00177937
0.00182594
0.00187303
0.00192066
0.0019688
0.00201749
0.00206673
0.00211651
0.00216687
0.00221779
0.0022693
0.00232141
0.00237414
0.00242749
0.00248147
0.0025361
0.00259139
0.00264736
0.002704
0.00276133
0.00281934
0.00287807
0.0029375
0.00299763
0.00305846
0.00311997
0.00318219
0.00324506
0.0033086
0.00337279
0.00343759
0.00350297
0.00356893
0.0036354
0.00370236
0.00376974
0.00383753
0.00390564
0.00397403
0.00404261
0.00411134
0.00418013
0.00424891
0.00431761
0.00438614
0.00445441
0.00452236
0.0045899
0.00465697