/*--------------------------------*- C++ -*----------------------------------*\
| =========                 |                                                 |
| \\      /  F ield         | OpenFOAM Extend Project: Open source CFD        |
|  \\    /   O peration     | Version:  1.6-ext                               |
|   \\  /    A nd           | Web:      www.extend-project.de                 |
|    \\/     M anipulation  |                                                 |
\*---------------------------------------------------------------------------*/
FoamFile
{
    version     2.0;
    format      ascii;
    class       volScalarField;
    location    "2000";
    object      k;
}
// * * * * * * * * * * * * * * * * * * * * * * * * * * * * * * * * * * * * * //

dimensions      [0 2 -2 0 0 0 0];

internalField   nonuniform List<scalar> 
12225
(
0.335211
0.299858
0.270197
0.245817
0.226177
0.210686
0.198767
0.189897
0.183612
0.179508
0.177227
0.176455
0.176916
0.178366
0.180591
0.183407
0.186665
0.191116
0.513853
0.496376
0.463697
0.437629
0.420604
0.411697
0.409531
0.412824
0.420468
0.43152
0.445167
0.460714
0.477563
0.495212
0.513246
0.531328
0.549311
0.566521
0.420763
0.432865
0.427977
0.4186
0.409115
0.401072
0.394974
0.390901
0.388757
0.388369
0.389535
0.39204
0.39567
0.400219
0.405492
0.411303
0.417447
0.423602
0.385365
0.39213
0.393863
0.39238
0.38925
0.385473
0.381636
0.378076
0.374972
0.372407
0.370408
0.368965
0.368045
0.367599
0.36757
0.367893
0.368487
0.369264
0.376362
0.378145
0.378872
0.378437
0.377101
0.375171
0.372906
0.370502
0.368094
0.365774
0.363602
0.361611
0.359816
0.358222
0.356821
0.3556
0.354536
0.353614
0.373793
0.373143
0.372537
0.371696
0.370554
0.369141
0.367522
0.365769
0.363944
0.362098
0.360271
0.358492
0.35678
0.355149
0.353604
0.352149
0.35078
0.349506
0.373066
0.371392
0.36994
0.368573
0.367205
0.365797
0.364338
0.362835
0.361303
0.359758
0.358216
0.356694
0.355201
0.353746
0.352337
0.350978
0.349671
0.348429
0.372892
0.370893
0.369089
0.367425
0.365851
0.364331
0.362843
0.361373
0.35992
0.358485
0.35707
0.355681
0.354321
0.352995
0.351706
0.350456
0.349248
0.348095
0.372836
0.370714
0.368749
0.366921
0.365207
0.363585
0.362034
0.360541
0.359096
0.357695
0.356333
0.35501
0.353724
0.352477
0.351268
0.350098
0.348967
0.347887
0.372816
0.370644
0.368603
0.366686
0.364882
0.363179
0.361565
0.360028
0.358561
0.357155
0.355806
0.354508
0.353259
0.352056
0.350897
0.34978
0.348705
0.347682
0.372807
0.370618
0.368548
0.366591
0.36474
0.36299
0.361331
0.359756
0.358259
0.356834
0.355474
0.354176
0.352934
0.351746
0.350608
0.349517
0.348471
0.347481
0.372803
0.370607
0.368526
0.366554
0.364684
0.362911
0.361228
0.359631
0.358112
0.356669
0.355295
0.353986
0.352738
0.351548
0.350411
0.349326
0.348289
0.34731
0.3728
0.370601
0.368516
0.366538
0.364661
0.362878
0.361185
0.359577
0.358047
0.356592
0.355208
0.353889
0.352633
0.351436
0.350295
0.349206
0.348168
0.34719
0.372797
0.370597
0.368509
0.366528
0.364648
0.362862
0.361164
0.359551
0.358016
0.356555
0.355165
0.353841
0.35258
0.351377
0.350231
0.349138
0.348096
0.347115
0.372796
0.370594
0.368505
0.366522
0.364639
0.362851
0.361151
0.359535
0.357997
0.356534
0.35514
0.353813
0.352548
0.351343
0.350193
0.349097
0.348052
0.347068
0.372795
0.370592
0.368501
0.366517
0.364633
0.362843
0.361142
0.359524
0.357984
0.356519
0.355123
0.353794
0.352527
0.351319
0.350168
0.349069
0.348023
0.347037
0.372794
0.37059
0.368499
0.366514
0.364629
0.362838
0.361135
0.359516
0.357975
0.356508
0.355111
0.35378
0.352512
0.351303
0.35015
0.34905
0.348002
0.347015
0.372794
0.37059
0.368499
0.366513
0.364628
0.362836
0.361132
0.359512
0.35797
0.356503
0.355105
0.353773
0.352504
0.351294
0.35014
0.349039
0.34799
0.347002
0.372794
0.37059
0.368499
0.366514
0.364628
0.362836
0.361133
0.359512
0.35797
0.356502
0.355104
0.353772
0.352503
0.351293
0.350138
0.349037
0.347988
0.347
0.372794
0.370591
0.3685
0.366515
0.36463
0.362839
0.361136
0.359516
0.357974
0.356507
0.355109
0.353778
0.352509
0.351299
0.350146
0.349045
0.347996
0.347009
0.372795
0.370592
0.368502
0.366519
0.364635
0.362845
0.361144
0.359526
0.357987
0.356523
0.355128
0.353799
0.352533
0.351325
0.350174
0.349076
0.348029
0.347043
0.372796
0.370595
0.368508
0.366529
0.364651
0.362868
0.361175
0.359566
0.358036
0.356581
0.355195
0.353874
0.352614
0.351413
0.350266
0.34917
0.348125
0.347139
0.372799
0.370606
0.368534
0.366574
0.364722
0.362968
0.361304
0.359724
0.35822
0.356786
0.355417
0.354107
0.352854
0.351653
0.350501
0.349396
0.348337
0.347333
0.372816
0.370668
0.368666
0.366794
0.365034
0.363367
0.361778
0.360255
0.358788
0.357371
0.356
0.354672
0.353384
0.352137
0.350928
0.349759
0.348628
0.34755
0.372923
0.371002
0.369283
0.367687
0.366153
0.364643
0.363137
0.361628
0.360118
0.35861
0.357113
0.355633
0.354176
0.352747
0.351353
0.349995
0.34868
0.347421
0.37354
0.372563
0.371678
0.370637
0.369359
0.367853
0.366163
0.364345
0.362445
0.360507
0.358563
0.356636
0.354748
0.35291
0.351133
0.349422
0.347785
0.346236
0.376804
0.378818
0.379377
0.378485
0.376569
0.374025
0.371138
0.368099
0.365033
0.362022
0.359117
0.356351
0.353742
0.351299
0.349026
0.34692
0.344979
0.34321
0.393566
0.401203
0.399799
0.394702
0.388335
0.381761
0.375458
0.369633
0.364366
0.359675
0.355549
0.351962
0.348879
0.346263
0.344075
0.342277
0.34083
0.339709
0.438814
0.43341
0.416294
0.398719
0.383332
0.370608
0.360432
0.352532
0.34661
0.342393
0.339637
0.33813
0.337684
0.338139
0.339352
0.341198
0.343561
0.346377
0.337557
0.3051
0.278452
0.256295
0.237732
0.222108
0.208916
0.197753
0.188293
0.18027
0.173469
0.16771
0.162843
0.158743
0.155305
0.152439
0.150068
0.148127
0.00209552
0.00358002
0.00466113
0.0054856
0.00629763
0.00717595
0.00811908
0.00920734
0.0104363
0.0117418
0.0131474
0.0146496
0.0162405
0.0179133
0.0196627
0.0214852
0.0233782
0.0253404
0.0273713
0.0294708
0.0316398
0.0338796
0.0361922
0.0385801
0.0410467
0.0435963
0.0462342
0.0489672
0.0518037
0.0547547
0.0578339
0.0610592
0.0644534
0.0680462
0.071876
0.075993
0.0804628
0.0853717
0.0908333
0.0969985
0.104069
0.112315
0.122104
0.13394
0.148526
0.15528
0.161786
0.168433
0.175245
0.182225
0.189375
0.196698
0.204194
0.211866
0.219714
0.227739
0.23594
0.244318
0.252873
0.261604
0.270509
0.279588
0.288838
0.298257
0.307843
0.317592
0.327501
0.337566
0.347784
0.358149
0.368656
0.3793
0.390075
0.400974
0.411991
0.423119
0.434349
0.445673
0.457083
0.468569
0.480122
0.49173
0.503384
0.515071
0.52678
0.538497
0.550208
0.5619
0.573558
0.585167
0.59671
0.608173
0.619538
0.630791
0.641918
0.652905
0.663742
0.674426
0.684955
0.695344
0.705617
0.715827
0.725816
0.735521
0.744935
0.754047
0.762848
0.771328
0.779478
0.787289
0.794751
0.801856
0.808595
0.814961
0.820945
0.826541
0.831742
0.836542
0.840936
0.844917
0.848483
0.85163
0.854356
0.856658
0.858536
0.85999
0.861019
0.861625
0.861809
0.861573
0.860922
0.859858
0.858389
0.85652
0.854257
0.851608
0.84858
0.845181
0.841421
0.837311
0.832862
0.828083
0.822986
0.817582
0.811886
0.80591
0.799667
0.793168
0.786431
0.779469
0.772293
0.764917
0.757363
0.749637
0.741753
0.733734
0.725579
0.717314
0.708959
0.700499
0.691986
0.683405
0.674731
0.666178
0.657948
0.65196
0.647937
0.644167
0.640461
0.636795
0.63316
0.629548
0.625943
0.622314
0.618603
0.61467
0.610314
0.604773
0.597233
0.58139
0.00432873
0.0085488
0.0118265
0.0146671
0.0171297
0.0194349
0.0217772
0.0242681
0.026962
0.0298699
0.0329821
0.0362857
0.0397703
0.0434282
0.0472537
0.0512431
0.0553937
0.0597047
0.0641761
0.0688092
0.0736062
0.0785703
0.0837053
0.0890159
0.0945076
0.100187
0.10606
0.112136
0.118424
0.124934
0.131678
0.138669
0.145921
0.153453
0.161281
0.169427
0.177913
0.186759
0.195989
0.205621
0.215664
0.226115
0.236941
0.248058
0.259299
0.270345
0.281588
0.293115
0.304947
0.317091
0.329556
0.342346
0.355467
0.368921
0.382713
0.396846
0.411323
0.426145
0.441314
0.45683
0.472696
0.488909
0.505469
0.522375
0.539625
0.557214
0.575141
0.593399
0.611985
0.630892
0.650114
0.669643
0.689472
0.709591
0.72999
0.750661
0.771591
0.792768
0.814181
0.835816
0.857659
0.879694
0.901906
0.924279
0.946793
0.969431
0.992172
1.015
1.03788
1.0608
1.08372
1.10664
1.1295
1.1523
1.175
1.19756
1.21998
1.2422
1.26422
1.28602
1.30757
1.32875
1.34947
1.36979
1.38969
1.40915
1.42816
1.44669
1.46472
1.48223
1.49921
1.51563
1.53147
1.54672
1.56135
1.57535
1.58871
1.60141
1.61342
1.62475
1.63537
1.64527
1.65444
1.66288
1.67058
1.67753
1.68372
1.68916
1.69383
1.69773
1.70088
1.70326
1.70488
1.70576
1.70588
1.70527
1.70393
1.70187
1.6991
1.69563
1.69149
1.68668
1.68122
1.67514
1.66844
1.66115
1.65329
1.64488
1.63595
1.62651
1.61659
1.60621
1.59541
1.58419
1.57259
1.56064
1.54835
1.53574
1.52287
1.50971
1.49631
1.48273
1.46878
1.45489
1.44106
1.42745
1.41426
1.40114
1.38806
1.37503
1.36208
1.34919
1.33637
1.32361
1.31087
1.29809
1.28515
1.27181
1.25738
1.23932
0.0071675
0.0145542
0.0195186
0.0232389
0.0264997
0.029652
0.0328904
0.0363246
0.0400065
0.0439484
0.0481428
0.0525775
0.0572412
0.0621258
0.0672257
0.0725374
0.0780593
0.0837915
0.0897353
0.0958933
0.102269
0.108868
0.115695
0.122757
0.13006
0.137614
0.145425
0.153505
0.161862
0.170508
0.179453
0.18871
0.198291
0.208209
0.218475
0.229103
0.240103
0.251483
0.263249
0.275401
0.287933
0.300832
0.314077
0.327637
0.341486
0.355616
0.37009
0.384938
0.400176
0.415814
0.431859
0.448317
0.465193
0.482495
0.500224
0.518387
0.536986
0.556023
0.575501
0.595421
0.615784
0.636589
0.657835
0.67952
0.701641
0.724195
0.747176
0.770579
0.794397
0.818622
0.843246
0.868258
0.893648
0.919403
0.945512
0.97196
0.998732
1.02581
1.05319
1.08083
1.10874
1.13688
1.16523
1.19378
1.22251
1.25138
1.28038
1.30947
1.33864
1.36785
1.39708
1.42629
1.45544
1.48451
1.51346
1.54226
1.57086
1.59923
1.62734
1.65515
1.68264
1.7096
1.73607
1.76202
1.78744
1.81231
1.83658
1.86025
1.88327
1.90564
1.92731
1.94826
1.96848
1.98794
2.0066
2.02446
2.04149
2.05766
2.07297
2.08739
2.1009
2.11349
2.12515
2.13587
2.14563
2.15443
2.16226
2.16911
2.17499
2.17988
2.1838
2.18674
2.18871
2.18971
2.18975
2.18885
2.18701
2.18425
2.18058
2.17602
2.17059
2.1643
2.15719
2.14926
2.14055
2.13108
2.12089
2.10998
2.0984
2.08617
2.07333
2.05989
2.0459
2.03138
2.01637
2.00089
1.98498
1.96864
1.95196
1.93489
1.91751
1.89996
1.88212
1.86422
1.84632
1.82852
1.8109
1.79333
1.7758
1.75834
1.74097
1.7237
1.70656
1.68955
1.6727
1.65599
1.63944
1.62305
1.60659
1.5901
0.0100996
0.0204216
0.0265219
0.0310747
0.0350552
0.0388806
0.0427788
0.0468768
0.051238
0.0558845
0.0608163
0.0660244
0.0714988
0.0772311
0.0832159
0.08945
0.0959322
0.102663
0.109646
0.116884
0.124381
0.132144
0.140178
0.148493
0.157094
0.165992
0.175195
0.184712
0.194554
0.204731
0.215253
0.22613
0.237374
0.248993
0.260996
0.273393
0.28619
0.29939
0.312998
0.327012
0.341432
0.356251
0.371466
0.387072
0.403073
0.41948
0.436313
0.453588
0.471319
0.489514
0.508182
0.527331
0.546967
0.567097
0.587727
0.608861
0.630504
0.652661
0.675333
0.698523
0.722232
0.74646
0.771206
0.796469
0.822246
0.848533
0.875325
0.902614
0.930394
0.958655
0.987388
1.01658
1.04622
1.07629
1.10678
1.13767
1.16894
1.20058
1.23256
1.26486
1.29747
1.33035
1.36349
1.39685
1.43042
1.46417
1.49806
1.53207
1.56617
1.60033
1.63451
1.66868
1.7028
1.73683
1.77073
1.80446
1.83798
1.87123
1.90418
1.93679
1.96895
2.00055
2.03158
2.062
2.09179
2.12091
2.14935
2.17705
2.204
2.23016
2.25549
2.27998
2.30359
2.3263
2.34807
2.36888
2.3887
2.40752
2.42531
2.44204
2.4577
2.47228
2.48575
2.4981
2.50932
2.5194
2.52834
2.53613
2.54277
2.54825
2.55257
2.55574
2.55777
2.55866
2.55842
2.55707
2.55462
2.55108
2.54647
2.54082
2.53414
2.52647
2.51782
2.50822
2.4977
2.48629
2.47402
2.46093
2.44704
2.4324
2.41704
2.40098
2.38426
2.36694
2.34903
2.33056
2.31161
2.2921
2.27225
2.25202
2.23147
2.21068
2.18965
2.16848
2.14727
2.1261
2.10502
2.08395
2.06293
2.04198
2.02114
2.00045
1.97995
1.95967
1.93967
1.92003
1.90083
1.88226
1.86428
1.84741
0.0126151
0.0253078
0.0326175
0.038011
0.042667
0.0470781
0.0515106
0.0561166
0.0609779
0.0661317
0.0715889
0.0773472
0.0834
0.0897403
0.0963633
0.103266
0.110449
0.117912
0.125658
0.133693
0.142021
0.150649
0.159585
0.168835
0.178408
0.188314
0.19856
0.209158
0.220115
0.231443
0.24315
0.255246
0.26774
0.280641
0.293956
0.307693
0.321858
0.336456
0.351491
0.366967
0.382885
0.39925
0.416064
0.433333
0.451066
0.469275
0.487973
0.507172
0.526885
0.547121
0.567891
0.589202
0.611065
0.633486
0.656473
0.680034
0.704173
0.728896
0.754208
0.780111
0.80661
0.833703
0.861393
0.889679
0.918556
0.948024
0.978075
1.0087
1.0399
1.07166
1.10397
1.13682
1.17018
1.20406
1.23842
1.27325
1.30853
1.34424
1.38035
1.41684
1.45369
1.49086
1.52833
1.56608
1.60407
1.64226
1.68064
1.71917
1.75781
1.79653
1.83529
1.87406
1.91278
1.95142
1.98993
2.02825
2.06635
2.10416
2.14163
2.17872
2.21524
2.25115
2.2864
2.32096
2.3548
2.38788
2.42015
2.45159
2.48215
2.5118
2.5405
2.56823
2.59494
2.62061
2.64521
2.6687
2.69105
2.71225
2.73227
2.75107
2.76865
2.78497
2.80003
2.81381
2.82629
2.83747
2.84734
2.8559
2.86314
2.86906
2.87366
2.87694
2.87892
2.8796
2.879
2.87714
2.87402
2.86966
2.8641
2.85734
2.84942
2.84038
2.83022
2.81899
2.80672
2.79344
2.7792
2.76402
2.74793
2.73099
2.71324
2.69471
2.67542
2.65546
2.63481
2.61353
2.59176
2.56945
2.54672
2.5236
2.50013
2.47638
2.45239
2.42823
2.40398
2.37973
2.3555
2.33128
2.30709
2.28299
2.25902
2.23523
2.2117
2.18849
2.16569
2.14343
2.12186
2.10125
2.08161
2.0634
0.0145531
0.0293804
0.0377602
0.0439159
0.0491871
0.0541207
0.0590116
0.0640326
0.069284
0.0748188
0.0806604
0.0868155
0.093283
0.100059
0.107141
0.114527
0.122217
0.130213
0.138519
0.147139
0.15608
0.165349
0.174952
0.184899
0.195198
0.205857
0.216887
0.228296
0.240094
0.25229
0.264894
0.277915
0.291361
0.305241
0.319564
0.334336
0.349566
0.365259
0.381423
0.398064
0.415188
0.432804
0.450919
0.469543
0.488687
0.508362
0.528582
0.549359
0.570706
0.592633
0.615153
0.638276
0.662013
0.686374
0.711369
0.737006
0.763293
0.790237
0.817846
0.846124
0.875076
0.904704
0.935011
0.965997
0.997662
1.03
1.06301
1.09669
1.13102
1.166
1.20162
1.23786
1.2747
1.31214
1.35014
1.3887
1.42778
1.46736
1.50741
1.54791
1.58883
1.63014
1.6718
1.71378
1.75605
1.79858
1.84132
1.88426
1.92733
1.97052
2.01377
2.05704
2.10028
2.14345
2.1865
2.22935
2.27196
2.31427
2.35619
2.39767
2.43849
2.47862
2.51801
2.55663
2.59443
2.63136
2.66738
2.70245
2.73652
2.76956
2.80153
2.83238
2.86209
2.89061
2.91792
2.94398
2.96876
2.99223
3.01436
3.03512
3.05449
3.07246
3.089
3.10409
3.11773
3.12991
3.14061
3.14984
3.15759
3.16386
3.16865
3.17197
3.17383
3.17424
3.17321
3.17077
3.16693
3.16172
3.15516
3.14726
3.13808
3.12764
3.11597
3.10311
3.08908
3.07394
3.05773
3.04049
3.02223
3.00303
2.98294
2.96196
2.94013
2.91761
2.89438
2.87048
2.84602
2.82101
2.79553
2.76963
2.74336
2.71678
2.68993
2.66289
2.63574
2.60853
2.58131
2.55408
2.52689
2.49979
2.47285
2.44613
2.41973
2.39373
2.36827
2.3435
2.31963
2.29691
2.27534
2.25526
0.0161022
0.032688
0.0419514
0.0487556
0.0545615
0.0599516
0.0652376
0.0706061
0.0761709
0.0819985
0.0881243
0.0945646
0.101325
0.108407
0.11581
0.123534
0.13158
0.139951
0.148652
0.157688
0.167066
0.176792
0.186876
0.197325
0.208148
0.219356
0.230956
0.24296
0.255375
0.268213
0.281482
0.295192
0.309352
0.323972
0.33906
0.354625
0.370677
0.387224
0.404275
0.42184
0.439928
0.45855
0.477717
0.497442
0.517736
0.538614
0.560089
0.582176
0.604888
0.62824
0.652243
0.676913
0.702262
0.728302
0.755045
0.782503
0.810687
0.839607
0.86927
0.899686
0.930861
0.962799
0.995506
1.02898
1.06323
1.09825
1.13403
1.17057
1.20787
1.24591
1.28469
1.32418
1.36438
1.40525
1.44679
1.48897
1.53176
1.57513
1.61906
1.66351
1.70845
1.75385
1.79966
1.84585
1.89239
1.93923
1.98634
2.03366
2.08118
2.12883
2.17657
2.22436
2.27214
2.31985
2.36744
2.41484
2.46199
2.50879
2.5552
2.60102
2.64613
2.69046
2.73398
2.77663
2.81835
2.85909
2.89881
2.93747
2.975
3.01137
3.04654
3.08046
3.1131
3.14441
3.17436
3.20291
3.23003
3.25569
3.27985
3.30249
3.32358
3.34309
3.36103
3.37735
3.39206
3.40515
3.4166
3.42641
3.43459
3.44113
3.44604
3.44932
3.45098
3.45105
3.44954
3.44646
3.44185
3.43573
3.42812
3.41906
3.40857
3.39671
3.3835
3.36899
3.35319
3.33617
3.31799
3.29869
3.27825
3.25679
3.23439
3.21106
3.18684
3.16184
3.13609
3.10965
3.08258
3.05494
3.02678
2.99818
2.96917
2.93983
2.9102
2.88036
2.85036
2.82029
2.79017
2.76003
2.72994
2.69994
2.67013
2.64058
2.61139
2.58269
2.55463
2.52739
2.50118
2.47624
2.45252
2.43026
0.0173032
0.0352934
0.0452502
0.0525756
0.0588217
0.064593
0.0702092
0.0758632
0.0816774
0.0877279
0.0940601
0.100699
0.107657
0.114941
0.122553
0.130497
0.138775
0.147391
0.156351
0.165661
0.175328
0.185359
0.195765
0.206552
0.217732
0.229313
0.241306
0.25372
0.266566
0.279853
0.293593
0.307794
0.322468
0.337625
0.353276
0.36943
0.386098
0.403292
0.421024
0.439304
0.458146
0.477563
0.497568
0.518176
0.539403
0.561264
0.583774
0.606951
0.63081
0.655368
0.68064
0.706644
0.733395
0.760908
0.789199
0.818283
0.848171
0.878879
0.910417
0.942796
0.976025
1.01011
1.04506
1.08088
1.11757
1.15514
1.19357
1.23287
1.27303
1.31404
1.35589
1.39856
1.44203
1.4863
1.53132
1.57708
1.62355
1.6707
1.71849
1.76689
1.81585
1.86534
1.91532
1.96574
2.01657
2.06775
2.11924
2.17099
2.22297
2.27511
2.32738
2.37971
2.43205
2.48434
2.5365
2.58847
2.64016
2.69148
2.74235
2.7925
2.84186
2.89037
2.93797
2.98459
3.03019
3.0747
3.11806
3.16024
3.20116
3.2408
3.27909
3.316
3.35148
3.38549
3.41798
3.44893
3.4783
3.50605
3.53214
3.55655
3.57926
3.60023
3.61945
3.63691
3.65259
3.66648
3.67859
3.6889
3.69742
3.70414
3.70908
3.71224
3.71364
3.71329
3.71122
3.70745
3.70201
3.69493
3.68623
3.67595
3.66412
3.6508
3.63604
3.61985
3.60227
3.58336
3.56321
3.54187
3.51935
3.49572
3.47108
3.44546
3.4189
3.3915
3.36331
3.33437
3.30477
3.27456
3.2438
3.21256
3.18089
3.14885
3.11651
3.08393
3.05117
3.01831
2.98538
2.95242
2.91951
2.88671
2.85411
2.8218
2.78991
2.75857
2.72794
2.69824
2.66965
2.64238
2.61633
2.59171
0.0181936
0.0372692
0.0477412
0.0554617
0.0620487
0.0681198
0.0739965
0.0798733
0.0858763
0.0920876
0.0985596
0.105324
0.112401
0.119801
0.12753
0.135595
0.144
0.152752
0.161855
0.171318
0.181147
0.191353
0.201944
0.212929
0.224319
0.236124
0.248355
0.261022
0.274136
0.287708
0.30175
0.316272
0.331287
0.346807
0.362842
0.379407
0.396513
0.414174
0.432404
0.451218
0.47063
0.490657
0.511316
0.532622
0.554595
0.577253
0.600614
0.624697
0.649522
0.675108
0.701474
0.728641
0.756627
0.785452
0.815133
0.845689
0.877136
0.909492
0.94277
0.976985
1.01215
1.04827
1.08536
1.12343
1.16248
1.2025
1.24351
1.2855
1.32846
1.37239
1.41727
1.46308
1.50982
1.55745
1.60595
1.65529
1.70544
1.75637
1.80804
1.8604
1.91341
1.96703
2.02121
2.07589
2.13103
2.18658
2.24249
2.2987
2.35516
2.41182
2.46863
2.52551
2.58241
2.63927
2.69599
2.75251
2.80872
2.86453
2.91975
2.97415
3.02768
3.08027
3.13186
3.18236
3.23173
3.27989
3.32678
3.37235
3.41655
3.45932
3.5006
3.54036
3.57855
3.61512
3.65003
3.68323
3.71471
3.7444
3.77229
3.79834
3.82252
3.84481
3.86518
3.88364
3.90016
3.91474
3.92738
3.93808
3.94683
3.95363
3.95849
3.96144
3.96248
3.96164
3.95895
3.95442
3.94809
3.93999
3.93016
3.91863
3.90541
3.89062
3.87428
3.85643
3.83712
3.81639
3.79435
3.77102
3.74647
3.72075
3.69394
3.6661
3.63728
3.60756
3.57699
3.54565
3.5136
3.48091
3.44763
3.41384
3.37959
3.34495
3.30999
3.27475
3.23932
3.20376
3.16812
3.13245
3.09682
3.06131
3.02602
2.99105
2.95652
2.92261
2.88946
2.8573
2.8263
2.79664
2.76816
2.74108
0.0188111
0.0386909
0.0495184
0.0575164
0.0643475
0.0706358
0.0767011
0.0827363
0.0888678
0.0951806
0.101732
0.108558
0.115685
0.123126
0.130893
0.138995
0.147438
0.156229
0.165376
0.174887
0.184771
0.195037
0.205695
0.216756
0.22823
0.240128
0.252462
0.265244
0.278485
0.292198
0.306395
0.32109
0.336294
0.352023
0.368289
0.385109
0.402496
0.420467
0.439039
0.458228
0.478053
0.498533
0.519687
0.541536
0.5641
0.587401
0.611462
0.636304
0.66195
0.688425
0.71575
0.743948
0.773044
0.80306
0.834017
0.865938
0.898844
0.932754
0.967686
1.00366
1.04069
1.07878
1.11796
1.15822
1.19958
1.24203
1.28559
1.33025
1.376
1.42283
1.47074
1.5197
1.5697
1.62071
1.6727
1.72565
1.77951
1.83424
1.88981
1.94617
2.00326
2.06104
2.11944
2.17842
2.2379
2.29784
2.35817
2.41883
2.47977
2.54093
2.60224
2.66363
2.72505
2.7864
2.84761
2.90858
2.96922
3.02938
3.08874
3.14723
3.20475
3.26124
3.31662
3.37082
3.42376
3.47537
3.52559
3.57436
3.62162
3.66731
3.71138
3.75378
3.79446
3.83338
3.87049
3.90575
3.93912
3.97058
4.00006
4.02755
4.05301
4.07643
4.09778
4.11706
4.13426
4.14937
4.16239
4.17333
4.18217
4.18892
4.19359
4.19622
4.19681
4.19539
4.19198
4.18661
4.17933
4.17017
4.15918
4.14639
4.13183
4.11559
4.09772
4.07826
4.05726
4.03479
4.01091
3.98569
3.95918
3.93145
3.90256
3.87259
3.84161
3.80966
3.77684
3.7432
3.70881
3.67375
3.63807
3.60184
3.56514
3.52801
3.49054
3.45278
3.4148
3.37667
3.33844
3.30018
3.26196
3.22386
3.18599
3.14846
3.11141
3.07499
3.03939
3.00481
2.9714
2.93932
2.90837
2.87879
0.0191936
0.0396342
0.0506773
0.0588475
0.0658328
0.0722588
0.0784416
0.0845706
0.0907706
0.0971273
0.1037
0.11053
0.117644
0.125062
0.132798
0.140863
0.149265
0.158014
0.167118
0.176587
0.186429
0.196657
0.207279
0.218308
0.229756
0.241633
0.253954
0.26673
0.279976
0.293704
0.307929
0.322666
0.33793
0.353736
0.370102
0.387043
0.404579
0.422728
0.441509
0.460943
0.481052
0.501857
0.523381
0.54565
0.568686
0.592515
0.617164
0.642659
0.669026
0.696293
0.724487
0.753634
0.783764
0.814902
0.847074
0.880307
0.914624
0.95005
0.986607
1.02431
1.06319
1.10325
1.14451
1.18697
1.23066
1.27556
1.32169
1.36905
1.41761
1.46739
1.51836
1.57051
1.62381
1.67824
1.73377
1.79036
1.84797
1.90655
1.96606
2.02644
2.08764
2.14959
2.21223
2.2755
2.33932
2.40362
2.46834
2.53341
2.59876
2.66433
2.73005
2.79583
2.86162
2.92732
2.99284
3.05807
3.12291
3.18704
3.25029
3.31256
3.37378
3.43387
3.49274
3.55033
3.60654
3.66129
3.71453
3.76618
3.81618
3.86449
3.91103
3.95577
3.99864
4.03961
4.07862
4.11564
4.15064
4.18358
4.2144
4.24306
4.26956
4.29386
4.31595
4.33584
4.3535
4.36893
4.38215
4.39315
4.40191
4.40846
4.41281
4.41499
4.41502
4.41293
4.40874
4.40249
4.39424
4.38401
4.37186
4.35782
4.34195
4.32431
4.30495
4.28394
4.26133
4.23718
4.21156
4.18453
4.15617
4.12654
4.0957
4.06373
4.0307
3.99668
3.96174
3.92594
3.88937
3.85208
3.81415
3.77565
3.73664
3.69719
3.65737
3.61724
3.57687
3.53632
3.49567
3.45498
3.41432
3.37379
3.33349
3.29354
3.25408
3.21529
3.17732
3.14038
3.1046
3.07013
3.03674
3.0047
0.019378
0.0401726
0.0513117
0.0595621
0.0666206
0.0731106
0.0793432
0.0855034
0.0917137
0.0980589
0.104599
0.111377
0.118424
0.125761
0.133404
0.141367
0.14966
0.158295
0.16728
0.176627
0.186346
0.196448
0.206946
0.217851
0.229176
0.240935
0.253141
0.26581
0.278955
0.292593
0.30674
0.321412
0.336627
0.352403
0.36876
0.385718
0.403298
0.421522
0.440413
0.459995
0.480294
0.501336
0.523147
0.545756
0.569192
0.593483
0.618661
0.644756
0.671799
0.699821
0.728856
0.758934
0.790086
0.822345
0.85574
0.890302
0.926058
0.963036
1.00126
1.04076
1.08154
1.12364
1.16705
1.2118
1.25789
1.30533
1.35412
1.40426
1.45573
1.50854
1.56266
1.61808
1.67476
1.73268
1.79181
1.85209
1.91349
1.97596
2.03943
2.10385
2.16916
2.23528
2.30214
2.36965
2.43774
2.50633
2.57533
2.64468
2.71429
2.78409
2.854
2.92395
2.99385
3.0636
3.13311
3.20225
3.2708
3.33846
3.40514
3.47075
3.53522
3.59845
3.66037
3.72091
3.77994
3.83738
3.89319
3.94728
3.99959
4.05008
4.09868
4.14533
4.18999
4.2326
4.27313
4.31153
4.34777
4.38184
4.41366
4.44317
4.47037
4.49525
4.5178
4.53801
4.55588
4.5714
4.58458
4.59542
4.60394
4.61013
4.61402
4.61565
4.61502
4.61219
4.60717
4.60002
4.59077
4.57946
4.56616
4.5509
4.53375
4.51476
4.49399
4.47151
4.44737
4.42164
4.3944
4.3657
4.33561
4.30422
4.27158
4.23778
4.20287
4.16694
4.13006
4.09229
4.05372
4.01441
3.97443
3.93385
3.89274
3.85116
3.8092
3.7669
3.72434
3.68159
3.63872
3.5958
3.5529
3.51012
3.46758
3.42539
3.38369
3.34265
3.30245
3.26326
3.22521
3.18843
3.15266
3.11825
0.0194013
0.0403763
0.0515108
0.0597629
0.066824
0.0733117
0.0795317
0.0856648
0.0918303
0.0981117
0.104569
0.111245
0.118173
0.125376
0.132873
0.140677
0.148802
0.15726
0.166062
0.175219
0.184743
0.194647
0.204944
0.215646
0.22677
0.238329
0.250339
0.262816
0.275778
0.289242
0.303227
0.317753
0.332839
0.348508
0.364782
0.381686
0.399243
0.41748
0.436425
0.456106
0.476554
0.497797
0.51987
0.542803
0.566631
0.591388
0.617108
0.643827
0.671582
0.700409
0.730344
0.761424
0.793684
0.82716
0.861885
0.897894
0.935218
0.973887
1.01393
1.05537
1.09823
1.14253
1.18828
1.23549
1.28416
1.3343
1.38592
1.439
1.49354
1.54952
1.60693
1.66574
1.72591
1.78742
1.85022
1.91426
1.97949
2.04586
2.11329
2.18172
2.25109
2.3213
2.39229
2.46394
2.53615
2.60883
2.68189
2.75526
2.82884
2.90255
2.9763
3.05001
3.12357
3.1969
3.26988
3.3423
3.41383
3.48439
3.55388
3.6222
3.68927
3.75502
3.81937
3.88227
3.9435
4.00303
4.0608
4.11674
4.17079
4.22289
4.27299
4.32102
4.36693
4.41068
4.45223
4.49152
4.52854
4.56325
4.5956
4.62556
4.6531
4.67822
4.70091
4.72115
4.73895
4.7543
4.76722
4.77771
4.78579
4.79146
4.79476
4.7957
4.79433
4.79067
4.78477
4.77666
4.7664
4.75402
4.73959
4.72315
4.70477
4.6845
4.66241
4.63855
4.61301
4.58584
4.55711
4.5269
4.49527
4.46229
4.42805
4.39261
4.35604
4.31842
4.27982
4.24032
4.19998
4.15889
4.1171
4.07469
4.03173
3.98829
3.94443
3.90022
3.85573
3.81103
3.76618
3.72127
3.67638
3.6316
3.58703
3.54282
3.49909
3.456
3.41374
3.37245
3.33227
3.2933
3.2553
3.21863
0.0193001
0.0403124
0.0513591
0.0595471
0.0665502
0.0729779
0.0791301
0.0851833
0.091254
0.0974236
0.103751
0.110281
0.117045
0.124069
0.131371
0.138968
0.146874
0.155103
0.163665
0.172576
0.181847
0.191493
0.201528
0.211967
0.222827
0.234125
0.245879
0.258107
0.270829
0.284066
0.29784
0.312174
0.327091
0.342618
0.358782
0.37561
0.393133
0.411382
0.43039
0.450191
0.47082
0.492314
0.51471
0.538047
0.562361
0.587693
0.614082
0.64157
0.670197
0.700006
0.731036
0.763329
0.796923
0.831857
0.868168
0.905892
0.945062
0.985711
1.02787
1.07156
1.11681
1.16363
1.21202
1.26199
1.31354
1.36667
1.42138
1.47765
1.53549
1.59485
1.65573
1.71808
1.78187
1.84706
1.91359
1.98142
2.05047
2.12069
2.192
2.26433
2.33759
2.41171
2.48663
2.56215
2.63816
2.71457
2.7913
2.86823
2.94529
3.02236
3.09936
3.17618
3.25272
3.32888
3.40444
3.4791
3.55279
3.6254
3.69684
3.76703
3.83587
3.90329
3.9692
4.03353
4.09615
4.15698
4.21596
4.27302
4.32809
4.38111
4.43203
4.48079
4.52734
4.57162
4.6136
4.65325
4.69051
4.72537
4.7578
4.78775
4.81521
4.84017
4.86261
4.88254
4.89995
4.91485
4.92725
4.93716
4.94459
4.94956
4.9521
4.95224
4.95001
4.94545
4.93861
4.92952
4.91823
4.9048
4.88927
4.87171
4.85217
4.83073
4.80743
4.78234
4.75555
4.7271
4.69708
4.66555
4.63259
4.59826
4.56265
4.52582
4.48785
4.44881
4.40878
4.36782
4.32601
4.28343
4.24013
4.1962
4.15169
4.10668
4.06124
4.01542
3.96931
3.92296
3.87645
3.82985
3.78325
3.73674
3.69044
3.64446
3.59895
3.55406
3.50994
3.46677
3.42465
3.38368
3.34363
3.30489
0.0191125
0.0400449
0.0509363
0.059006
0.0659009
0.0722197
0.0782566
0.0841841
0.0901159
0.0961317
0.10229
0.108633
0.115194
0.121998
0.129066
0.136415
0.144061
0.152017
0.160299
0.16892
0.177895
0.187241
0.196974
0.207111
0.217672
0.228677
0.240147
0.252104
0.264571
0.277573
0.291136
0.305287
0.320056
0.335473
0.351573
0.368387
0.385954
0.404311
0.423497
0.443553
0.464523
0.486451
0.509383
0.533361
0.558425
0.58462
0.611992
0.640587
0.670452
0.701632
0.73417
0.76811
0.803492
0.840356
0.878739
0.918676
0.960198
1.00333
1.04811
1.09456
1.1427
1.19259
1.24411
1.2973
1.35214
1.40865
1.46681
1.52661
1.58801
1.651
1.71553
1.78156
1.84906
1.91796
1.9882
2.05974
2.13248
2.20636
2.2813
2.35721
2.43399
2.51155
2.58979
2.66858
2.74777
2.82727
2.90695
2.9867
3.06641
3.14598
3.22528
3.30422
3.38269
3.46042
3.53722
3.61303
3.68777
3.76135
3.83367
3.90466
3.97423
4.04229
4.10876
4.17357
4.23661
4.2978
4.35707
4.41436
4.46959
4.5227
4.57364
4.62236
4.66879
4.7129
4.75464
4.79398
4.83089
4.86533
4.89728
4.92671
4.95361
4.97796
4.99975
5.01898
5.03565
5.04978
5.06137
5.07044
5.07701
5.08109
5.08272
5.08192
5.07874
5.07321
5.06538
5.05529
5.04299
5.02854
5.01199
4.99339
4.97282
4.95033
4.92598
4.89984
4.87199
4.84249
4.8114
4.77881
4.74478
4.70938
4.67269
4.63478
4.59573
4.55559
4.51446
4.47239
4.42946
4.38574
4.34129
4.29619
4.25051
4.2043
4.15763
4.11058
4.0632
4.01556
3.96774
3.91981
3.87185
3.82396
3.77624
3.72882
3.68183
3.63541
3.58973
3.54493
3.50111
3.45838
3.41651
3.37593
0.0188804
0.039636
0.0503186
0.0582265
0.0649725
0.0711427
0.0770251
0.0827887
0.0885447
0.0943709
0.100324
0.106447
0.112773
0.119326
0.126129
0.1332
0.140555
0.148212
0.156187
0.164496
0.173156
0.182187
0.191608
0.201441
0.211708
0.222433
0.233645
0.245369
0.257636
0.270473
0.283913
0.297989
0.312738
0.3282
0.344415
0.361427
0.37928
0.39802
0.417696
0.43836
0.460062
0.482859
0.506812
0.53198
0.558368
0.586037
0.615044
0.645437
0.677267
0.710577
0.745412
0.781811
0.819812
0.85945
0.900754
0.943751
0.988464
1.03491
1.08311
1.13306
1.18479
1.23828
1.2935
1.35044
1.40908
1.4694
1.53137
1.59497
1.66016
1.72689
1.79513
1.86482
1.9359
2.00832
2.082
2.15688
2.23288
2.30991
2.38788
2.46671
2.54628
2.62648
2.70721
2.78833
2.86971
2.95121
3.0327
3.11406
3.19516
3.27587
3.35608
3.43564
3.51427
3.59192
3.66856
3.74412
3.81854
3.89172
3.9636
4.03409
4.1031
4.17056
4.23639
4.3005
4.36282
4.42326
4.48174
4.53821
4.59259
4.64483
4.69487
4.74265
4.78813
4.83126
4.872
4.91031
4.94618
4.97956
5.01044
5.03878
5.06459
5.08784
5.10853
5.12666
5.14224
5.15526
5.16576
5.17374
5.17922
5.18223
5.1828
5.18096
5.17675
5.1702
5.16138
5.15031
5.13705
5.12166
5.10419
5.08469
5.06324
5.03989
5.0147
4.98774
4.95909
4.9288
4.89694
4.86359
4.82882
4.79269
4.75528
4.71666
4.67689
4.63606
4.59422
4.55144
4.5078
4.46336
4.41819
4.37236
4.32592
4.27894
4.23148
4.18362
4.1354
4.0869
4.03818
3.98933
3.94041
3.89153
3.84278
3.79429
3.74617
3.69858
3.65165
3.60553
3.56032
3.51612
3.47272
3.43058
0.0186527
0.0391499
0.049583
0.0572958
0.0638611
0.0698511
0.0755476
0.0811164
0.0866664
0.092274
0.0979952
0.103872
0.109938
0.116219
0.122739
0.129518
0.136574
0.143929
0.1516
0.159611
0.167982
0.176734
0.185892
0.195483
0.205538
0.216089