/*--------------------------------*- C++ -*----------------------------------*\
| =========                 |                                                 |
| \\      /  F ield         | OpenFOAM Extend Project: Open source CFD        |
|  \\    /   O peration     | Version:  1.6-ext                               |
|   \\  /    A nd           | Web:      www.extend-project.de                 |
|    \\/     M anipulation  |                                                 |
\*---------------------------------------------------------------------------*/
FoamFile
{
    version     2.0;
    format      ascii;
    class       surfaceScalarField;
    location    "0";
    object      phi;
}
// * * * * * * * * * * * * * * * * * * * * * * * * * * * * * * * * * * * * * //

dimensions      [0 3 -1 0 0 0 0];

internalField   nonuniform List<scalar> 
24170
(
3.08198e-06
-6.48247e-07
3.037e-06
-2.31493e-07
2.97549e-06
-8.91068e-08
2.91502e-06
-2.29298e-08
2.85958e-06
8.88982e-09
2.80887e-06
2.37648e-08
2.7625e-06
3.036e-08
2.72023e-06
3.2732e-08
2.68178e-06
3.28613e-08
2.64684e-06
3.17988e-08
2.61509e-06
3.01293e-08
2.58624e-06
2.81814e-08
2.56004e-06
2.61371e-08
2.53625e-06
2.40918e-08
2.51467e-06
2.20903e-08
2.49496e-06
2.01822e-08
2.47781e-06
1.85882e-08
1.23505e-08
2.45837e-06
3.45484e-06
3.38168e-07
3.44818e-06
2.71682e-07
3.43593e-06
1.87242e-07
3.42193e-06
1.40298e-07
3.4077e-06
1.11441e-07
3.393e-06
9.18639e-08
3.37782e-06
7.81808e-08
3.36242e-06
6.82459e-08
3.34702e-06
6.06618e-08
3.33178e-06
5.45937e-08
3.31682e-06
4.95465e-08
3.30226e-06
4.52135e-08
3.2882e-06
4.13922e-08
3.27472e-06
3.79384e-08
3.26193e-06
3.47368e-08
3.25008e-06
3.16977e-08
3.23952e-06
2.87059e-08
2.60561e-08
3.23049e-06
3.81114e-06
3.88625e-08
3.81469e-06
3.96754e-08
3.81662e-06
3.85373e-08
3.8157e-06
4.70494e-08
3.81341e-06
5.37268e-08
3.80999e-06
5.67332e-08
3.80561e-06
5.74361e-08
3.80055e-06
5.67648e-08
3.79501e-06
5.52145e-08
3.78915e-06
5.31118e-08
3.78309e-06
5.06825e-08
3.77692e-06
4.80701e-08
3.77074e-06
4.53555e-08
3.76464e-06
4.25707e-08
3.75872e-06
3.97029e-08
3.75318e-06
3.668e-08
3.74792e-06
3.32527e-08
2.82947e-08
3.74338e-06
4.2065e-06
3.25556e-08
4.21196e-06
6.33253e-08
4.21668e-06
7.05536e-08
4.21904e-06
7.36545e-08
4.2204e-06
7.37924e-08
4.22109e-06
7.1606e-08
4.22112e-06
6.84777e-08
4.22066e-06
6.50927e-08
4.21981e-06
6.16655e-08
4.21867e-06
5.82731e-08
4.2173e-06
5.49499e-08
4.21579e-06
5.17019e-08
4.21421e-06
4.85134e-08
4.21262e-06
4.5347e-08
4.21106e-06
4.21376e-08
4.20965e-06
3.87668e-08
4.20822e-06
3.50006e-08
3.02686e-08
4.20685e-06
4.64061e-06
2.72236e-08
4.64658e-06
5.58801e-08
4.6521e-06
6.30573e-08
4.65582e-06
6.54667e-08
4.65881e-06
6.61811e-08
4.66133e-06
6.52401e-08
4.66334e-06
6.33642e-08
4.66494e-06
6.10504e-08
4.66623e-06
5.84935e-08
4.66727e-06
5.5787e-08
4.66813e-06
5.2991e-08
4.66885e-06
5.01383e-08
4.66947e-06
4.72359e-08
4.67005e-06
4.42657e-08
4.67061e-06
4.11805e-08
4.67116e-06
3.78892e-08
4.67153e-06
3.42492e-08
3.00152e-08
4.67165e-06
5.11833e-06
2.71357e-08
5.12423e-06
5.11659e-08
5.13009e-06
5.89475e-08
5.13463e-06
6.18561e-08
5.13852e-06
6.30187e-08
5.14202e-06
6.25551e-08
5.14511e-06
6.10388e-08
5.14781e-06
5.89676e-08
5.15024e-06
5.65817e-08
5.15247e-06
5.40018e-08
5.15451e-06
5.13006e-08
5.15643e-06
4.85177e-08
5.15824e-06
4.56647e-08
5.15995e-06
4.27292e-08
5.16161e-06
3.96762e-08
5.16317e-06
3.64459e-08
5.1645e-06
3.29735e-08
2.92082e-08
5.16544e-06
5.64458e-06
2.38936e-08
5.6503e-06
4.4123e-08
5.65632e-06
5.27505e-08
5.66142e-06
5.64771e-08
5.66596e-06
5.81472e-08
5.6701e-06
5.81752e-08
5.67387e-06
5.70889e-08
5.67734e-06
5.53649e-08
5.68053e-06
5.32622e-08
5.68349e-06
5.09165e-08
5.68628e-06
4.84094e-08
5.68893e-06
4.57872e-08
5.69146e-06
4.30697e-08
5.69389e-06
4.02555e-08
5.6962e-06
3.73279e-08
5.69834e-06
3.42606e-08
5.70023e-06
3.10433e-08
2.77117e-08
5.70173e-06
4.40855e-06
2.15383e-08
4.41244e-06
3.9767e-08
4.41675e-06
4.86636e-08
4.42062e-06
5.27714e-08
4.42415e-06
5.46727e-08
4.42743e-06
5.49491e-08
4.43046e-06
5.41056e-08
4.43328e-06
5.25895e-08
4.43592e-06
5.06611e-08
4.43841e-06
4.84628e-08
4.44077e-06
4.60813e-08
4.44299e-06
4.35683e-08
4.4451e-06
4.09495e-08
4.44715e-06
3.8232e-08
4.44909e-06
3.54124e-08
4.45085e-06
3.24843e-08
4.45246e-06
2.94616e-08
2.64068e-08
4.45377e-06
5.14233e-06
1.91438e-08
5.14633e-06
3.54059e-08
5.15095e-06
4.41878e-08
5.15527e-06
4.85332e-08
5.15927e-06
5.06321e-08
5.16305e-06
5.11444e-08
5.16659e-06
5.05479e-08
5.16993e-06
4.92537e-08
5.17307e-06
4.75173e-08
5.17602e-06
4.54861e-08
5.17885e-06
4.32521e-08
5.18154e-06
4.08721e-08
5.18411e-06
3.83787e-08
5.18655e-06
3.57885e-08
5.18884e-06
3.31106e-08
5.19097e-06
3.03553e-08
5.19289e-06
2.75511e-08
2.47707e-08
5.19451e-06
5.99828e-06
1.67877e-08
6.00232e-06
3.1079e-08
6.00714e-06
3.94718e-08
6.01185e-06
4.39098e-08
6.01631e-06
4.61452e-08
6.0206e-06
4.6854e-08
6.02467e-06
4.64832e-08
6.02854e-06
4.54044e-08
6.03219e-06
4.38632e-08
6.03567e-06
4.20091e-08
6.039e-06
3.99374e-08
6.04214e-06
3.77101e-08
6.04514e-06
3.53665e-08
6.04801e-06
3.2932e-08
6.05071e-06
3.04268e-08
6.05317e-06
2.78731e-08
6.05544e-06
2.53068e-08
2.27995e-08
6.05739e-06
6.99671e-06
1.44494e-08
7.00075e-06
2.67837e-08
7.00575e-06
3.45611e-08
7.01079e-06
3.89336e-08
7.01572e-06
4.12251e-08
7.02051e-06
4.20774e-08
7.02509e-06
4.19006e-08
7.02946e-06
4.10245e-08
7.03362e-06
3.96787e-08
7.0376e-06
3.80107e-08
7.04145e-06
3.61175e-08
7.04512e-06
3.40647e-08
7.04858e-06
3.18975e-08
7.05183e-06
2.96489e-08
7.0549e-06
2.73468e-08
7.05777e-06
2.50211e-08
7.06039e-06
2.27091e-08
2.04747e-08
7.06267e-06
8.16141e-06
1.2148e-08
8.16539e-06
2.25662e-08
8.17049e-06
2.95264e-08
8.17588e-06
3.366e-08
8.18118e-06
3.591e-08
8.1864e-06
3.68397e-08
8.1915e-06
3.68148e-08
8.19639e-06
3.61212e-08
8.20112e-06
3.49665e-08
8.20565e-06
3.34916e-08
8.20997e-06
3.17923e-08
8.21409e-06
2.99361e-08
8.218e-06
2.79719e-08
8.22171e-06
2.59378e-08
8.22518e-06
2.38666e-08
8.2284e-06
2.17908e-08
8.23141e-06
1.97458e-08
1.77847e-08
8.23403e-06
9.52009e-06
9.90215e-09
9.52396e-06
1.84464e-08
9.52911e-06
2.4416e-08
9.53473e-06
2.81321e-08
9.54044e-06
3.02269e-08
9.5461e-06
3.11563e-08
9.55167e-06
3.12317e-08
9.55709e-06
3.06932e-08
9.56237e-06
2.97216e-08
9.56741e-06
2.8445e-08
9.57222e-06
2.69549e-08
9.57688e-06
2.53173e-08
9.58125e-06
2.35824e-08
9.58539e-06
2.179e-08
9.58929e-06
1.99744e-08
9.59291e-06
1.81674e-08
9.59633e-06
1.63998e-08
1.47146e-08
9.59933e-06
1.1105e-05
7.71756e-09
1.11089e-05
1.44196e-08
1.1114e-05
1.9259e-08
1.11198e-05
2.23867e-08
1.11258e-05
2.42014e-08
1.1132e-05
2.5042e-08
1.11381e-05
2.51566e-08
1.1144e-05
2.47381e-08
1.11498e-05
2.39353e-08
1.11554e-05
2.28591e-08
1.11608e-05
2.15911e-08
1.11659e-05
2.01926e-08
1.11708e-05
1.87111e-08
1.11754e-05
1.71851e-08
1.11797e-05
1.56469e-08
1.11837e-05
1.4125e-08
1.11875e-05
1.26451e-08
1.12409e-08
1.11909e-05
1.29539e-05
5.58135e-09
1.29576e-05
1.04537e-08
1.29628e-05
1.40498e-08
1.29689e-05
1.64336e-08
1.29753e-05
1.78395e-08
1.29818e-05
1.84954e-08
1.29884e-05
1.85817e-08
1.29949e-05
1.82414e-08
1.30012e-05
1.75881e-08
1.30074e-05
1.67097e-08
1.30133e-05
1.56733e-08
1.3019e-05
1.4531e-08
1.30243e-05
1.33239e-08
1.30295e-05
1.20856e-08
1.30343e-05
1.08438e-08
1.30388e-05
9.62214e-09
1.3043e-05
8.44097e-09
7.32608e-09
1.30468e-05
1.51107e-05
3.45908e-09
1.51145e-05
6.48408e-09
1.51198e-05
8.73577e-09
1.5126e-05
1.02368e-08
1.51328e-05
1.11092e-08
1.51397e-05
1.14844e-08
1.51469e-05
1.14733e-08
1.5154e-05
1.1167e-08
1.51609e-05
1.06404e-08
1.51677e-05
9.95387e-09
1.51742e-05
9.15505e-09
1.51804e-05
8.28238e-09
1.51864e-05
7.36693e-09
1.51921e-05
6.43433e-09
1.51974e-05
5.50559e-09
1.52025e-05
4.5983e-09
1.52072e-05
3.72721e-09
2.91171e-09
1.52115e-05
1.76268e-05
1.27521e-09
1.76307e-05
2.37553e-09
1.76362e-05
3.16827e-09
1.76428e-05
3.65812e-09
1.76501e-05
3.88578e-09
1.76577e-05
3.89597e-09
1.76654e-05
3.72901e-09
1.76732e-05
3.42124e-09
1.76808e-05
3.00501e-09
1.76882e-05
2.50847e-09
1.76955e-05
1.95579e-09
1.77024e-05
1.3677e-09
1.7709e-05
7.6199e-10
1.77153e-05
1.53894e-10
1.77212e-05
-4.43729e-10
1.77268e-05
-1.02012e-09
1.77322e-05
-1.56613e-09
-2.06817e-09
1.77371e-05
1.78284e-05
-7.9422e-10
1.78321e-05
-1.53324e-09
1.78374e-05
-2.15901e-09
1.78437e-05
-2.66726e-09
1.78507e-05
-3.08277e-09
1.7858e-05
-3.44145e-09
1.78656e-05
-3.77123e-09
1.78732e-05
-4.08914e-09
1.78806e-05
-4.40451e-09
1.78878e-05
-4.72131e-09
1.78947e-05
-5.0395e-09
1.79014e-05
-5.3564e-09
1.79078e-05
-5.66785e-09
1.7914e-05
-5.96906e-09
1.79198e-05
-6.25512e-09
1.79254e-05
-6.52153e-09
1.79306e-05
-6.76394e-09
-6.97359e-09
1.79354e-05
1.58833e-05
-2.64104e-09
1.58866e-05
-5.03989e-09
1.58914e-05
-6.94197e-09
1.58971e-05
-8.32366e-09
1.59033e-05
-9.28037e-09
1.59098e-05
-9.93436e-09
1.59163e-05
-1.03795e-08
1.5923e-05
-1.06815e-08
1.59295e-05
-1.08878e-08
1.59358e-05
-1.10311e-08
1.59419e-05
-1.11326e-08
1.59478e-05
-1.12052e-08
1.59534e-05
-1.1256e-08
1.59587e-05
-1.12888e-08
1.59637e-05
-1.13052e-08
1.59686e-05
-1.13055e-08
1.59732e-05
-1.12888e-08
-1.12498e-08
1.59774e-05
1.41505e-05
-4.37039e-09
1.41537e-05
-8.37186e-09
1.41582e-05
-1.14799e-08
1.41635e-05
-1.36246e-08
1.41692e-05
-1.5014e-08
1.41752e-05
-1.58796e-08
1.41811e-05
-1.63802e-08
1.41871e-05
-1.66271e-08
1.41929e-05
-1.6703e-08
1.41986e-05
-1.66666e-08
1.4204e-05
-1.65567e-08
1.42091e-05
-1.63988e-08
1.42141e-05
-1.62091e-08
1.42187e-05
-1.59981e-08
1.42232e-05
-1.57723e-08
1.42274e-05
-1.55359e-08
1.42315e-05
-1.52908e-08
-1.50344e-08
1.42351e-05
1.26068e-05
-6.01194e-09
1.26099e-05
-1.16614e-08
1.26143e-05
-1.5944e-08
1.26195e-05
-1.87202e-08
1.2625e-05
-2.04093e-08
1.26305e-05
-2.13835e-08
1.2636e-05
-2.18622e-08
1.26414e-05
-2.19996e-08
1.26467e-05
-2.19121e-08
1.26517e-05
-2.16804e-08
1.26566e-05
-2.13569e-08
1.26612e-05
-2.0976e-08
1.26656e-05
-2.05601e-08
1.26697e-05
-2.01243e-08
1.26736e-05
-1.96786e-08
1.26774e-05
-1.92296e-08
1.26809e-05
-1.87815e-08
-1.83336e-08
1.26842e-05
1.12315e-05
-7.55374e-09
1.12347e-05
-1.50578e-08
1.12392e-05
-2.0529e-08
1.12442e-05
-2.38058e-08
1.12495e-05
-2.56862e-08
1.12547e-05
-2.66887e-08
1.12598e-05
-2.70781e-08
1.12648e-05
-2.70552e-08
1.12695e-05
-2.67712e-08
1.12741e-05
-2.63247e-08
1.12785e-05
-2.57775e-08
1.12826e-05
-2.51702e-08
1.12864e-05
-2.45294e-08
1.12901e-05
-2.3873e-08
1.12936e-05
-2.32133e-08
1.12969e-05
-2.25593e-08
1.13e-05
-2.19174e-08
-2.12903e-08
1.13029e-05
1.00061e-05
-8.85461e-09
1.00094e-05
-1.85781e-08
1.0014e-05
-2.50566e-08
1.00191e-05
-2.85241e-08
1.00242e-05
-3.0429e-08
1.00291e-05
-3.13586e-08
1.00338e-05
-3.15851e-08
1.00384e-05
-3.13593e-08
1.00427e-05
-3.08643e-08
1.00468e-05
-3.02086e-08
1.00506e-05
-2.94567e-08
1.00543e-05
-2.86501e-08
1.00577e-05
-2.7816e-08
1.00609e-05
-2.69722e-08
1.0064e-05
-2.61313e-08
1.00668e-05
-2.53029e-08
1.00695e-05
-2.44953e-08
-2.37144e-08
1.0072e-05
8.91432e-06
-9.8597e-09
8.91765e-06
-2.32701e-08
8.92251e-06
-3.07543e-08
8.92759e-06
-3.41123e-08
8.9324e-06
-3.58937e-08
8.93694e-06
-3.66365e-08
8.94131e-06
-3.65895e-08
8.9454e-06
-3.60598e-08
8.94923e-06
-3.526e-08
8.95284e-06
-3.43071e-08
8.95623e-06
-3.32699e-08
8.95939e-06
-3.21927e-08
8.96233e-06
-3.11033e-08
8.96509e-06
-3.00189e-08
8.96767e-06
-2.89507e-08
8.97008e-06
-2.79073e-08
8.9723e-06
-2.68987e-08
-2.59352e-08
8.97431e-06
7.94143e-06
-7.30077e-09
7.94489e-06
-2.57995e-08
7.94997e-06
-3.39887e-08
7.95485e-06
-3.68344e-08
7.95925e-06
-3.8256e-08
7.96338e-06
-3.87212e-08
7.96723e-06
-3.84888e-08
7.97076e-06
-3.78698e-08
7.97405e-06
-3.70341e-08
7.97711e-06
-3.60619e-08
7.97992e-06
-3.50034e-08
7.98254e-06
-3.3895e-08
7.98496e-06
-3.27612e-08
7.98718e-06
-3.16184e-08
7.9892e-06
-3.04776e-08
7.99107e-06
-2.93472e-08
7.99282e-06
-2.82389e-08
-2.71657e-08
7.99435e-06
7.0736e-06
-7.31116e-09
7.07719e-06
-3.40624e-08
7.08259e-06
-4.51382e-08
7.08718e-06
-4.92639e-08
7.0911e-06
-5.0436e-08
7.0947e-06
-4.96295e-08
7.09799e-06
-4.78655e-08
7.10092e-06
-4.58074e-08
7.10354e-06
-4.37155e-08
7.10587e-06
-4.16789e-08
7.10795e-06
-3.97326e-08
7.10986e-06
-3.78879e-08
7.11156e-06
-3.61431e-08
7.11308e-06
-3.44895e-08
7.11442e-06
-3.29155e-08
7.11559e-06
-3.1408e-08
7.11661e-06
-2.99603e-08
-2.85642e-08
7.11736e-06
6.29927e-06
2.4183e-09
6.30287e-06
-3.93405e-09
6.30871e-06
-7.17266e-09
6.31285e-06
-1.60821e-08
6.31597e-06
-2.43451e-08
6.31861e-06
-2.96677e-08
6.32078e-06
-3.27814e-08
6.32254e-06
-3.44763e-08
6.32395e-06
-3.51977e-08
6.32512e-06
-3.52387e-08
6.32603e-06
-3.48157e-08
6.32672e-06
-3.4084e-08
6.32722e-06
-3.31499e-08
6.32754e-06
-3.20844e-08
6.32769e-06
-3.09323e-08
6.32769e-06
-2.97166e-08
6.32753e-06
-2.84477e-08
-2.70973e-08
6.32718e-06
5.60634e-06
-2.40832e-07
5.60949e-06
-2.18434e-07
5.61524e-06
-1.58972e-07
5.61886e-06
-1.21492e-07
5.62098e-06
-9.74329e-08
5.62207e-06
-8.03826e-08
5.62222e-06
-6.80946e-08
5.62166e-06
-5.9128e-08
5.62059e-06
-5.23847e-08
5.61912e-06
-4.71356e-08
5.61738e-06
-4.292e-08
5.61541e-06
-3.94391e-08
5.61325e-06
-3.64922e-08
5.61094e-06
-3.39402e-08
5.60852e-06
-3.16812e-08
5.60599e-06
-2.96301e-08
5.60329e-06
-2.77047e-08
-2.56941e-08
5.60051e-06
5.00148e-06
5.14865e-07
4.99883e-06
2.01557e-07
4.99316e-06
9.04808e-08
4.98649e-06
3.55342e-08
4.98013e-06
6.33171e-09
4.9736e-06
-9.0508e-09
4.96659e-06
-1.72367e-08
4.95918e-06
-2.15438e-08
4.9515e-06
-2.36203e-08
4.94364e-06
-2.43674e-08
4.93568e-06
-2.43157e-08
4.92767e-06
-2.37863e-08
4.91969e-06
-2.29768e-08
4.91177e-06
-2.20088e-08
4.90395e-06
-2.09556e-08
4.89629e-06
-1.98518e-08
4.88867e-06
-1.86919e-08
-1.72794e-08
4.88138e-06
4.44444e-06
4.42514e-06
4.38245e-06
4.33617e-06
4.2924e-06
4.25142e-06
4.213e-06
4.17711e-06
4.14365e-06
4.11246e-06
4.08338e-06
4.05624e-06
4.03091e-06
4.00726e-06
3.98516e-06
3.96456e-06
3.94511e-06
3.92794e-06
1.24441e-08
-1.20351e-08
2.29991e-08
-1.15195e-08
3.00674e-08
-6.77962e-09
3.18761e-08
-1.02923e-09
2.79963e-08
4.56859e-09
1.93349e-08
9.58802e-09
6.52914e-09
1.38792e-08
-9.82496e-09
1.7446e-08
-2.8722e-08
2.02423e-08
-4.96691e-08
2.24532e-08
-7.24997e-08
2.43187e-08
-9.69512e-08
2.5949e-08
-1.22838e-07
2.73893e-08
-1.49996e-07
2.866e-08
-1.78273e-07
2.97742e-08
-2.07525e-07
3.07435e-08
-2.37624e-07
3.15804e-08
-2.6845e-07
3.22979e-08
-2.99899e-07
3.29093e-08
-3.31875e-07
3.34275e-08
-3.643e-07
3.38647e-08
-3.97103e-07
3.42322e-08
-4.30223e-07
3.45405e-08
-4.63611e-07
3.47991e-08
-4.97226e-07
3.50162e-08
-5.3103e-07
3.51993e-08
-5.64996e-07
3.53549e-08
-5.99101e-07
3.54885e-08
-6.33326e-07
3.56048e-08
-6.67658e-07
3.57078e-08
-7.02085e-07
3.58008e-08
-7.36599e-07
3.58865e-08
-7.71193e-07
3.59668e-08
-8.05864e-07
3.60435e-08
-8.40607e-07
3.61174e-08
-8.75421e-07
3.61893e-08
-9.10302e-07
3.62593e-08
-9.45248e-07
3.63274e-08
-9.80256e-07
3.63932e-08
-1.01532e-06
3.64561e-08
-1.05045e-06
3.65153e-08
-1.08562e-06
3.65702e-08
-1.12084e-06
3.662e-08
-1.1561e-06
3.66645e-08
-1.19139e-06
3.67041e-08
-1.22673e-06
3.6741e-08
-1.26208e-06
3.67816e-08
-1.29747e-06
3.68379e-08
-1.33293e-06
3.69176e-08
-1.36849e-06
3.70181e-08
-1.40414e-06
3.71225e-08
-1.43988e-06
3.72185e-08
-1.4757e-06
3.73066e-08
-1.5116e-06
3.73841e-08
-1.54755e-06
3.74484e-08
-1.58355e-06
3.74972e-08
-1.61958e-06
3.75284e-08
-1.65561e-06
3.75402e-08
-1.69163e-06
3.75309e-08
-1.72762e-06
3.7499e-08
-1.76354e-06
3.74428e-08
-1.79939e-06
3.73608e-08
-1.83512e-06
3.72518e-08
-1.87072e-06
3.71142e-08
-1.90616e-06
3.69469e-08
-1.9414e-06
3.67484e-08
-1.9764e-06
3.65176e-08
-2.01116e-06
3.62531e-08
-2.04562e-06
3.59536e-08
-2.07975e-06
3.56178e-08
-2.11352e-06
3.52446e-08
-2.14689e-06
3.48323e-08
-2.17982e-06
3.43797e-08
-2.21226e-06
3.38853e-08
-2.24419e-06
3.33475e-08
-2.27556e-06
3.27648e-08
-2.30632e-06
3.21355e-08
-2.33643e-06
3.14578e-08
-2.36584e-06
3.073e-08
-2.39449e-06
2.99503e-08
-2.42235e-06
2.91168e-08
-2.44936e-06
2.82276e-08
-2.47546e-06
2.7281e-08
-2.50059e-06
2.62751e-08
-2.52471e-06
2.52086e-08
-2.54775e-06
2.40798e-08
-2.56965e-06
2.28876e-08
-2.59036e-06
2.16314e-08
-2.60982e-06
2.03104e-08
-2.62795e-06
1.89248e-08
-2.64471e-06
1.74753e-08
-2.66004e-06
1.59627e-08
-2.67388e-06
1.43889e-08
-2.68618e-06
1.27563e-08
-2.69688e-06
1.10677e-08
-2.70594e-06
9.32654e-09
-2.71332e-06
7.53652e-09
-2.71897e-06
5.70164e-09
-2.72287e-06
3.82525e-09
-2.72497e-06
1.90877e-09
-2.72523e-06
-4.60568e-11
-2.72366e-06
-2.01801e-09
-2.72025e-06
-3.98804e-09
-2.715e-06
-5.95797e-09
-2.70792e-06
-7.92865e-09
-2.69901e-06
-9.89941e-09
-2.68828e-06
-1.18693e-08
-2.67573e-06
-1.38372e-08
-2.66137e-06
-1.58016e-08
-2.6452e-06
-1.77614e-08
-2.62725e-06
-1.97151e-08
-2.60752e-06
-2.16611e-08
-2.58602e-06
-2.35978e-08
-2.56277e-06
-2.55234e-08
-2.5378e-06
-2.74363e-08
-2.51111e-06
-2.93345e-08
-2.48272e-06
-3.12159e-08
-2.45267e-06
-3.30785e-08
-2.42098e-06
-3.49199e-08
-2.38767e-06
-3.67375e-08
-2.35278e-06
-3.85293e-08
-2.31634e-06
-4.0293e-08
-2.27838e-06
-4.20268e-08
-2.23894e-06
-4.37287e-08
-2.19806e-06
-4.53971e-08
-2.15577e-06
-4.70303e-08
-2.11212e-06
-4.86264e-08
-2.06715e-06
-5.01835e-08
-2.02092e-06
-5.16992e-08
-1.97345e-06
-5.3171e-08
-1.92481e-06
-5.45971e-08
-1.87504e-06
-5.59764e-08
-1.8242e-06
-5.73079e-08
-1.77234e-06
-5.85913e-08
-1.71951e-06
-5.9826e-08
-1.66577e-06
-6.10097e-08
-1.61117e-06
-6.21398e-08
-1.55577e-06
-6.32157e-08
-1.49963e-06
-6.42377e-08
-1.44281e-06
-6.52077e-08
-1.38537e-06
-6.61258e-08
-1.32735e-06
-6.6989e-08
-1.26882e-06
-6.77956e-08
-1.20985e-06
-6.85482e-08
-1.15047e-06
-6.92543e-08
-1.09075e-06
-6.99117e-08
-1.03074e-06
-7.05123e-08
-9.70503e-07
-7.10612e-08
-9.10083e-07
-7.15735e-08
-8.49531e-07
-7.20436e-08
-7.88902e-07
-7.24547e-08
-7.28231e-07
-7.28435e-08
-6.67565e-07
-7.32065e-08
-6.06953e-07
-7.35016e-08
-5.46421e-07
-7.38042e-08
-4.85999e-07
-7.40873e-08
-4.25721e-07
-7.43321e-08
-3.65618e-07
-7.46056e-08
-3.0569e-07
-7.48236e-08
-2.46007e-07
-7.51162e-08
-1.86475e-07
-7.542e-08
-1.27132e-07
-7.56463e-08
-6.83009e-08
-7.59567e-08
-9.06382e-09
-7.63997e-08
4.97638e-08
-7.59623e-08
1.07241e-07
-7.44878e-08
1.64164e-07
-7.31024e-08
2.20461e-07
-7.19076e-08
2.76195e-07
-7.08366e-08
3.3141e-07
-6.98425e-08
3.86116e-07
-6.88861e-08
4.40289e-07
-6.79231e-08
4.93847e-07
-6.68936e-08
5.46641e-07
-6.56843e-08
5.98269e-07
-6.41237e-08
6.4822e-07
-6.1734e-08
6.94317e-07
-5.79491e-08
7.35814e-07
-4.99941e-08
7.5131e-07
-3.58328e-08
5.28492e-09
7.74218e-07
4.1578e-09
-1.60041e-08
3.38264e-09
-1.01423e-08
-2.77052e-09
-6.91194e-10
-1.2707e-08
8.55837e-09
-2.5484e-08
1.68784e-08
-4.07192e-08
2.41135e-08
-5.81044e-08
3.02837e-08
-7.73938e-08
3.54783e-08
-9.83879e-08
3.98267e-08
-1.20921e-07
4.35121e-08
-1.44823e-07
4.66987e-08
-1.69919e-07
4.94897e-08
-1.96055e-07
5.19485e-08
-2.23099e-07
5.41144e-08
-2.50935e-07
5.60151e-08
-2.79461e-07
5.76734e-08
-3.08585e-07
5.91116e-08
-3.38223e-07
6.0351e-08
-3.68302e-07
6.14128e-08
-3.98757e-07
6.23176e-08
-4.29529e-07
6.30854e-08
-4.6057e-07
6.37349e-08
-4.91837e-07
6.42828e-08
-5.23294e-07
6.47451e-08
-5.54911e-07
6.5136e-08
-5.86663e-07
6.54681e-08
-6.18533e-07
6.57527e-08
-6.50504e-07
6.59995e-08
-6.82564e-07
6.62169e-08
-7.14707e-07
6.64118e-08
-7.46927e-07
6.65906e-08
-7.79219e-07
6.67583e-08
-8.11585e-07
6.69183e-08
-8.44023e-07
6.70744e-08
-8.76535e-07
6.72282e-08
-9.09124e-07
6.73822e-08
-9.41792e-07
6.75367e-08
-9.74544e-07
6.76926e-08
-1.00738e-06
6.78495e-08
-1.04031e-06
6.80077e-08
-1.07334e-06
6.81665e-08
-1.10647e-06
6.83249e-08
-1.1397e-06
6.8483e-08
-1.17303e-06
6.86394e-08
-1.20648e-06
6.87946e-08
-1.24006e-06
6.89493e-08
-1.27375e-06
6.91064e-08
-1.30756e-06
6.92727e-08
-1.34147e-06
6.94494e-08
-1.37546e-06
6.96302e-08
-1.40952e-06
6.98059e-08
-1.44365e-06
6.99687e-08
-1.47783e-06
7.01135e-08
-1.51206e-06
7.02357e-08
-1.54632e-06
7.03308e-08
-1.58059e-06
7.0395e-08
-1.61485e-06
7.04245e-08
-1.64909e-06
7.04168e-08
-1.68329e-06
7.0368e-08
-1.71743e-06
7.02756e-08
-1.75147e-06
7.01366e-08
-1.7854e-06
6.99486e-08
-1.81919e-06
6.97086e-08
-1.85282e-06
6.9415e-08
-1.88626e-06
6.90644e-08
-1.91948e-06
6.86546e-08
-1.95245e-06
6.81841e-08
-1.98513e-06
6.76498e-08
-2.0175e-06
6.70498e-08
-2.04953e-06
6.63814e-08
-2.08117e-06
6.56426e-08
-2.1124e-06
6.48306e-08
-2.14317e-06
6.39431e-08
-2.17345e-06
6.29773e-08
-2.2032e-06
6.19305e-08
-2.23238e-06
6.07998e-08
-2.26094e-06
5.9582e-08
-2.28884e-06
5.82741e-08
-2.31604e-06
5.68727e-08
-2.34249e-06
5.53744e-08
-2.36814e-06
5.37759e-08
-2.39294e-06
5.20736e-08
-2.41683e-06
5.02642e-08
-2.43977e-06
4.83443e-08
-2.46169e-06
4.63112e-08
-2.48255e-06
4.4162e-08
-2.50227e-06
4.18947e-08
-2.52081e-06
3.95077e-08
-2.5381e-06
3.70003e-08
-2.55408e-06
3.43724e-08
-2.5687e-06
3.16254e-08
-2.5819e-06
2.87613e-08
-2.59362e-06
2.57837e-08
-2.6038e-06
2.26971e-08
-2.61241e-06
1.95074e-08
-2.61937e-06
1.62215e-08
-2.62467e-06
1.28466e-08
-2.62825e-06
9.39086e-09
-2.63008e-06
5.86126e-09
-2.63012e-06
2.26169e-09
-2.62835e-06
-1.39483e-09
-2.62477e-06
-5.07275e-09
-2.61939e-06
-8.74689e-09
-2.61219e-06
-1.24165e-08
-2.60318e-06
-1.6081e-08
-2.59238e-06
-1.97389e-08
-2.57978e-06
-2.33882e-08
-2.56539e-06
-2.70262e-08
-2.54921e-06
-3.06503e-08
-2.53126e-06
-3.42577e-08
-2.51155e-06
-3.78454e-08
-2.49008e-06
-4.14104e-08
-2.46687e-06
-4.49492e-08
-2.44194e-06
-4.84585e-08
-2.41531e-06
-5.19347e-08
-2.38699e-06
-5.53739e-08
-2.357e-06
-5.87723e-08
-2.32536e-06
-6.21257e-08
-2.29212e-06
-6.54294e-08
-2.25728e-06
-6.86785e-08
-2.22088e-06
-7.18688e-08
-2.18295e-06
-7.49959e-08
-2.14353e-06
-7.80558e-08
-2.10265e-06
-8.1045e-08
-2.06035e-06
-8.39598e-08
-2.01666e-06
-8.67975e-08
-1.97164e-06
-8.95543e-08
-1.92532e-06
-9.22267e-08
-1.87775e-06
-9.48098e-08
-1.82897e-06
-9.72991e-08
-1.77904e-06
-9.96908e-08
-1.728e-06
-1.01982e-07
-1.67591e-06
-1.04172e-07
-1.62282e-06
-1.0626e-07
-1.56878e-06
-1.08243e-07
-1.51384e-06
-1.1012e-07
-1.45806e-06
-1.11884e-07
-1.4015e-06
-1.13534e-07
-1.34422e-06
-1.1507e-07
-1.28628e-06
-1.16495e-07
-1.22772e-06
-1.17811e-07
-1.16861e-06
-1.19012e-07
-1.109e-06
-1.20095e-07
-1.04895e-06
-1.21062e-07
-9.8853e-07
-1.21928e-07
-9.27773e-07
-1.2269e-07
-8.66744e-07
-1.23335e-07
-8.05497e-07
-1.23867e-07
-7.44079e-07
-1.24315e-07
-6.8254e-07
-1.2467e-07
-6.20933e-07
-1.24903e-07
-5.59295e-07
-1.25072e-07
-4.9767e-07
-1.25176e-07
-4.36101e-07
-1.2515e-07
-3.74621e-07
-1.25098e-07
-3.13258e-07
-1.24996e-07
-2.5204e-07
-1.24807e-07
-1.91003e-07
-1.24625e-07
-1.30118e-07
-1.24368e-07
-6.95092e-08
-1.2409e-07
-8.96094e-09
-1.23838e-07
5.13221e-08
-1.23384e-07
1.10886e-07
-1.22805e-07
1.70052e-07
-1.22396e-07
2.28753e-07
-1.21486e-07
2.86905e-07
-1.19952e-07
3.44603e-07
-1.18518e-07
4.01781e-07
-1.17226e-07
4.58455e-07
-1.16038e-07
5.14639e-07
-1.1491e-07
5.70326e-07
-1.13791e-07
6.25482e-07
-1.12616e-07
6.80019e-07
-1.11287e-07
7.33784e-07
-1.09623e-07
7.86424e-07
-1.0733e-07
8.37505e-07
-1.03729e-07
8.85469e-07
-9.78017e-08
9.30308e-07
-8.63504e-08
9.62246e-07
-6.55816e-08
-2.01341e-08
1.00292e-06
-7.1182e-09
-1.05149e-08
-1.74787e-08
1.40518e-09
-3.10386e-08
1.33834e-08
-4.6224e-08
2.39247e-08
-6.2677e-08
3.3291e-08
-8.02516e-08
4.16014e-08
-9.89808e-08
4.89122e-08
-1.1889e-07
5.5287e-08
-1.39963e-07
6.08173e-08
-1.62131e-07
6.56211e-08
-1.85286e-07
6.98151e-08
-2.09311e-07
7.34934e-08
-2.34095e-07
7.67269e-08
-2.59541e-07
7.95678e-08
-2.85564e-07
8.20572e-08
-3.12092e-07
8.42288e-08
-3.39061e-07
8.61148e-08
-3.66417e-07
8.77438e-08
-3.94109e-07
8.91441e-08
-4.22095e-07
9.03424e-08
-4.50337e-07
9.13647e-08
-4.78802e-07
9.22342e-08
-5.07462e-07
9.29735e-08
-5.36293e-07
9.36022e-08
-5.65277e-07
9.41393e-08
-5.94396e-07
9.46013e-08
-6.23637e-07
9.50021e-08
-6.52992e-07
9.53552e-08
-6.82452e-07
9.56718e-08
-7.12014e-07
9.59605e-08
-7.41674e-07
9.623e-08
-7.7143e-07
9.64873e-08
-8.01284e-07
9.6737e-08
-8.31236e-07
9.69835e-08
-8.61288e-07
9.72302e-08
-8.91443e-07
9.74794e-08
-9.21704e-07
9.77327e-08
-9.52076e-07
9.79904e-08
-9.82561e-07
9.8253e-08
-1.01316e-06
9.85202e-08
-1.04389e-06
9.87911e-08
-1.07473e-06
9.9065e-08
-1.10571e-06
9.93413e-08
-1.13681e-06
9.96178e-08
-1.16804e-06
9.98941e-08
-1.1994e-06
1.00169e-07
-1.23089e-06
1.00443e-07
-1.26248e-06
1.00715e-07
-1.29417e-06
1.00983e-07
-1.32596e-06
1.01241e-07
-1.35781e-06
1.01482e-07
-1.38972e-06
1.01698e-07
-1.42168e-06
1.01884e-07
-1.45368e-06
1.02033e-07
-1.4857e-06
1.02141e-07
-1.51772e-06
1.02202e-07
-1.54973e-06
1.02211e-07
-1.58172e-06
1.02164e-07
-1.61365e-06
1.02056e-07
-1.6455e-06
1.01885e-07
-1.67727e-06
1.01644e-07
-1.70892e-06
1.01331e-07
-1.74042e-06
1.00942e-07
-1.77175e-06
1.00475e-07
-1.8029e-06
9.99236e-08
-1.83383e-06
9.92861e-08
-1.86451e-06
9.85595e-08
-1.8949e-06
9.77402e-08
-1.92499e-06
9.68251e-08
-1.95474e-06
9.58105e-08
-1.98411e-06
9.46931e-08
-2.01309e-06
9.34696e-08
-2.04162e-06
9.21359e-08
-2.06968e-06
9.0689e-08
-2.09722e-06
8.9124e-08
-2.12421e-06
8.7437e-08
-2.1506e-06
8.56236e-08
-2.17637e-06
8.3679e-08
-2.20146e-06
8.15986e-08
-2.22582e-06
7.93768e-08
-2.24942e-06
7.70089e-08
-2.2722e-06
7.44895e-08
-2.29412e-06
7.18135e-08
-2.31512e-06
6.89759e-08
-2.33514e-06
6.59722e-08
-2.35414e-06
6.27982e-08
-2.37205e-06
5.94504e-08
-2.38882e-06
5.59265e-08
-2.40439e-06
5.22249e-08
-2.4187e-06
4.83456e-08
-2.43169e-06
4.42899e-08
-2.44331e-06
4.0061e-08
-2.4535e-06
3.56639e-08
-2.4622e-06
3.1105e-08
-2.46937e-06
2.63931e-08
-2.47494e-06
2.15381e-08
-2.47889e-06
1.65515e-08
-2.48118e-06
1.14451e-08
-2.48176e-06
6.2301e-09
-2.48059e-06
9.14451e-10
-2.47767e-06
-4.4672e-09
-2.47301e-06
-9.86626e-09
-2.4666e-06
-1.52633e-08
-2.45845e-06
-2.06544e-08
-2.44854e-06
-2.60375e-08
-2.43688e-06
-3.14096e-08
-2.42349e-06
-3.67673e-08
-2.40836e-06
-4.21071e-08
-2.39151e-06
-4.74249e-08
-2.37293e-06
-5.27163e-08
-2.35265e-06
-5.7977e-08
-2.33066e-06
-6.32022e-08
-2.30699e-06
-6.8387e-08
-2.28165e-06
-7.35263e-08
-2.25466e-06
-7.86147e-08
-2.22603e-06
-8.36467e-08
-2.19578e-06
-8.86164e-08
-2.16394e-06
-9.35177e-08
-2.13053e-06
-9.83435e-08
-2.09558e-06
-1.03087e-07
-2.05911e-06
-1.07741e-07
-2.02116e-06
-1.12299e-07
-1.98176e-06
-1.16756e-07
-1.94094e-06
-1.21105e-07
-1.89875e-06
-1.25342e-07
-1.85522e-06
-1.29462e-07
-1.81038e-06
-1.33461e-07
-1.7643e-06
-1.37333e-07
-1.71699e-06
-1.4107e-07
-1.66852e-06
-1.44665e-07
-1.61892e-06
-1.48114e-07
-1.56826e-06
-1.51413e-07
-1.51657e-06
-1.54557e-07
-1.46391e-06
-1.57547e-07
-1.41034e-06
-1.60381e-07
-1.3559e-06
-1.63054e-07
-1.30064e-06
-1.65559e-07
-1.24464e-06
-1.67891e-07
-1.18793e-06
-1.70051e-07
-1.13058e-06
-1.72045e-07
-1.07264e-06
-1.73874e-07
-1.01416e-06
-1.75532e-07
-9.55216e-07
-1.77011e-07
-8.95849e-07
-1.78314e-07
-8.36115e-07
-1.79465e-07
-7.76064e-07
-1.80461e-07
-7.15754e-07
-1.81279e-07
-6.5524e-07
-1.81929e-07
-5.94564e-07
-1.82448e-07
-5.33775e-07
-1.82829e-07
-4.72924e-07
-1.83027e-07
-4.12051e-07
-1.83122e-07
-3.51195e-07
-1.83119e-07
-2.90392e-07
-1.82933e-07
-2.29685e-07
-1.82687e-07
-1.69091e-07
-1.82375e-07
-1.08637e-07
-1.81926e-07
-4.83764e-08
-1.8143e-07
1.1774e-08
-1.80856e-07
7.15792e-08
-1.80147e-07
1.30939e-07
-1.79392e-07
1.89947e-07
-1.7845e-07
2.48473e-07
-1.77318e-07
3.06541e-07
-1.76276e-07
3.64181e-07
-1.7493e-07
4.21453e-07
-1.73203e-07
4.78344e-07
-1.71515e-07
5.34791e-07
-1.69926e-07
5.90783e-07
-1.68421e-07
6.46315e-07
-1.66959e-07
7.01369e-07
-1.65482e-07
7.55907e-07
-1.63906e-07
8.09845e-07
-1.62092e-07
8.63044e-07
-1.59799e-07
9.15206e-07
-1.56624e-07
9.66023e-07
-1.51744e-07
1.0144e-06
-1.4389e-07
1.06105e-06
-1.29848e-07
1.10101e-06
-1.06099e-07
-6.13615e-08
1.14988e-06
-1.60127e-08
2.69375e-09
-3.1487e-08
1.86058e-08
-4.85861e-08
3.12169e-08
-6.66534e-08
4.20488e-08
-8.52085e-08
5.1761e-08
-1.04175e-07
6.05312e-08
-1.23668e-07
6.84111e-08
-1.43788e-07
7.54324e-08
-1.64582e-07
8.16469e-08
-1.86048e-07
8.71276e-08
-2.08146e-07
9.19573e-08
-2.30821e-07
9.6213e-08
-2.54012e-07
9.99625e-08
-2.77662e-07
1.03261e-07
-3.01718e-07
1.06156e-07
-3.26137e-07
1.08689e-07
-3.50881e-07
1.10898e-07
-3.75914e-07
1.12816e-07
-4.01207e-07
1.14475e-07
-4.26735e-07
1.15907e-07
-4.52474e-07
1.17141e-07
-4.78406e-07
1.18202e-07
-5.04513e-07
1.19116e-07
-5.30781e-07
1.19905e-07
-5.57198e-07
1.20591e-07
-5.83755e-07
1.21193e-07
-6.10443e-07
1.21725e-07
-6.37258e-07
1.22204e-07
-6.64194e-07
1.22643e-07
-6.9125e-07
1.23052e-07
-7.18425e-07
1.2344e-07
-7.45717e-07
1.23815e-07
-7.73128e-07
1.24184e-07
-8.00659e-07
1.24551e-07
-8.28312e-07
1.2492e-07
-8.5609e-07
1.25295e-07
-8.83994e-07
1.25675e-07
-9.12027e-07
1.26063e-07
-9.40193e-07
1.26458e-07
-9.68493e-07
1.2686e-07
-9.96928e-07
1.27267e-07
-1.0255e-06
1.27678e-07
-1.05421e-06
1.28091e-07
-1.08305e-06
1.28503e-07
-1.11203e-06
1.28912e-07
-1.14113e-06
1.29316e-07
-1.17036e-06
1.2971e-07
-1.1997e-06
1.30094e-07
-1.22913e-06
1.3046e-07
-1.25865e-06
1.30804e-07
-1.28824e-06
1.31118e-07
-1.3179e-06
1.31395e-07
-1.3476e-06
1.31628e-07
-1.37734e-06
1.31811e-07
-1.40709e-06
1.31937e-07
-1.43685e-06
1.32001e-07
-1.46659e-06
1.31995e-07
-1.4963e-06
1.31915e-07
-1.52595e-06
1.31755e-07
-1.55554e-06
1.3151e-07
-1.58503e-06
1.31175e-07
-1.6144e-06
1.30745e-07
-1.64363e-06
1.30216e-07
-1.6727e-06
1.29583e-07
-1.70158e-06
1.28842e-07
-1.73024e-06
1.27989e-07
-1.75865e-06
1.27018e-07
-1.7868e-06
1.25928e-07
-1.81465e-06
1.24713e-07
-1.84216e-06
1.23368e-07
-1.86932e-06
1.21891e-07
-1.89608e-06
1.20276e-07
-1.92243e-06
1.18517e-07
-1.94831e-06
1.16612e-07
-1.9737e-06
1.14555e-07
-1.99856e-06
1.12339e-07
-2.02286e-06
1.09959e-07
-2.04655e-06
1.07409e-07
-2.06959e-06
1.04682e-07
-2.09195e-06
1.01772e-07
-2.11357e-06
9.86719e-08
-2.13442e-06
9.53738e-08
-2.15444e-06
9.18715e-08
-2.17358e-06
8.81577e-08
-2.1918e-06
8.42259e-08
-2.20903e-06
8.00705e-08
-2.22523e-06
7.56863e-08
-2.24034e-06
7.10695e-08
-2.25429e-06
6.62178e-08
-2.26704e-06
6.11305e-08
-2.27852e-06
5.58089e-08
-2.28867e-06
5.02567e-08
-2.29745e-06
4.44801e-08
-2.30479e-06
3.84877e-08
-2.31065e-06
3.22905e-08
-2.31497e-06
2.59021e-08
-2.31772e-06
1.93378e-08
-2.31885e-06
1.26137e-08
-2.31832e-06
5.74569e-09
-2.31611e-06
-1.24743e-09
-2.31222e-06
-8.31105e-09
-2.30665e-06
-1.53912e-08
-2.29939e-06
-2.24729e-08
-2.29045e-06
-2.95489e-08
-2.27983e-06
-3.66154e-08
-2.26752e-06
-4.36679e-08
-2.25353e-06
-5.07019e-08
-2.23788e-06
-5.77127e-08
-2.22056e-06
-6.4695e-08
-2.20158e-06
-7.1643e-08