/*--------------------------------*- C++ -*----------------------------------*\
| =========                 |                                                 |
| \\      /  F ield         | OpenFOAM Extend Project: Open source CFD        |
|  \\    /   O peration     | Version:  1.6-ext                               |
|   \\  /    A nd           | Web:      www.extend-project.de                 |
|    \\/     M anipulation  |                                                 |
\*---------------------------------------------------------------------------*/
FoamFile
{
    version     2.0;
    format      ascii;
    class       volSymmTensorField;
    location    "0";
    object      ((k|(Sct*epsilon))*R);
}
// * * * * * * * * * * * * * * * * * * * * * * * * * * * * * * * * * * * * * //

dimensions      [0 2 -1 0 0 0 0];

internalField   nonuniform List<symmTensor> 
12225
(
(0.000154192 -0.000428493 0 0.000187457 0 0.000150912)
(0.000145257 -0.00043738 0 0.000156768 0 0.000142733)
(0.000139145 -0.00043064 0 0.000141383 0 0.000135489)
(0.000132984 -0.000424379 0 0.00013106 0 0.000129233)
(0.00012755 -0.000418831 0 0.000123665 0 0.000123962)
(0.000123066 -0.000413817 0 0.000118231 0 0.000119642)
(0.000119474 -0.000409189 0 0.000114206 0 0.000116208)
(0.00011669 -0.00040491 0 0.000111278 0 0.000113586)
(0.000114633 -0.000400947 0 0.000109242 0 0.00011169)
(0.000113224 -0.000397289 0 0.000107945 0 0.000110435)
(0.000112372 -0.0003939 0 0.000107259 0 0.000109731)
(0.000111993 -0.000390762 0 0.000107073 0 0.000109492)
(0.000112002 -0.00038786 0 0.00010729 0 0.000109634)
(0.000112322 -0.000385185 0 0.000107828 0 0.000110084)
(0.000112882 -0.000382716 0 0.000108611 0 0.000110767)
(0.000113638 -0.000380463 0 0.000109575 0 0.000111628)
(0.000114431 -0.000378278 0 0.000110654 0 0.000112615)
(0.000116052 -0.000375803 0 0.000112618 0 0.00011395)
(0.00162351 -0.000470437 0 -0.00227562 0 0.00164137)
(0.00126341 -0.000194599 0 -1.61813e-05 0 0.00124314)
(0.00107469 -0.000287831 0 0.000491455 0 0.00104875)
(0.000957762 -0.000366489 0 0.000642046 0 0.000932901)
(0.000883891 -0.000423589 0 0.000691 0 0.000861042)
(0.000838438 -0.000469277 0 0.000707812 0 0.000816177)
(0.000810813 -0.000507471 0 0.000714236 0 0.00078857)
(0.000794528 -0.000539423 0 0.000717845 0 0.000772292)
(0.000785638 -0.000565687 0 0.000721235 0 0.0007635)
(0.000781585 -0.000586654 0 0.000725154 0 0.000759631)
(0.000780577 -0.000602735 0 0.000729615 0 0.000758915)
(0.000781393 -0.000614433 0 0.000734432 0 0.000760138)
(0.000783197 -0.00062231 0 0.000739378 0 0.000762462)
(0.000785417 -0.000626966 0 0.000744274 0 0.00076533)
(0.000787657 -0.000629009 0 0.000749011 0 0.000768378)
(0.000789469 -0.000628994 0 0.000753586 0 0.000771373)
(0.000790596 -0.000628138 0 0.00075839 0 0.000774187)
(0.000790785 -0.000622529 0 0.000754809 0 0.000776434)
(0.00351162 9.55561e-05 0 0.00952058 0 0.00349323)
(0.0025814 1.60787e-05 0 0.00532513 0 0.00262508)
(0.00218905 -0.00016976 0 0.00351196 0 0.0022067)
(0.0019529 -0.000274076 0 0.00263504 0 0.00194742)
(0.00178233 -0.000329812 0 0.00214778 0 0.00176867)
(0.00165615 -0.00036986 0 0.00185065 0 0.00163729)
(0.00155856 -0.000402602 0 0.00165569 0 0.00153603)
(0.00147965 -0.000429417 0 0.00151957 0 0.00145501)
(0.00141395 -0.00045075 0 0.00141951 0 0.00138827)
(0.00135811 -0.000467228 0 0.00134275 0 0.00133203)
(0.00130981 -0.00047923 0 0.00128179 0 0.00128379)
(0.0012675 -0.000487298 0 0.00123203 0 0.00124188)
(0.00123005 -0.000491953 0 0.00119056 0 0.00120513)
(0.00119665 -0.000493731 0 0.0011555 0 0.0011727)
(0.00116664 -0.000493367 0 0.00112562 0 0.00114396)
(0.00113927 -0.000490947 0 0.00110021 0 0.00111844)
(0.00111522 -0.000485871 0 0.0010792 0 0.00109571)
(0.00109252 -0.000477412 0 0.00106746 0 0.00107575)
(0.00509056 -0.000426285 0 0.005661 0 0.00517845)
(0.00409865 -0.000218762 0 0.00362115 0 0.00426864)
(0.00357569 -0.000161015 0 0.00295038 0 0.00368746)
(0.00324433 -0.000180547 0 0.00276637 0 0.00329075)
(0.00297902 -0.000206915 0 0.00264984 0 0.00300227)
(0.00277183 -0.000240841 0 0.00254282 0 0.00278211)
(0.00260673 -0.00027904 0 0.00244148 0 0.00260724)
(0.00247007 -0.000315904 0 0.00234569 0 0.00246373)
(0.00235341 -0.000349458 0 0.00225578 0 0.00234274)
(0.00225191 -0.000379573 0 0.00217202 0 0.00223846)
(0.0021623 -0.000405304 0 0.00209436 0 0.00214696)
(0.00208199 -0.000427476 0 0.00202255 0 0.00206553)
(0.00200938 -0.000445344 0 0.0019563 0 0.00199226)
(0.00194248 -0.000459576 0 0.00189529 0 0.00192582)
(0.00188086 -0.000470292 0 0.00183928 0 0.00186523)
(0.00182388 -0.000476863 0 0.00178815 0 0.00180983)
(0.00177346 -0.000478076 0 0.00174127 0 0.00175919)
(0.00172731 -0.00047843 0 0.00169366 0 0.00171364)
(0.00579535 -0.000414977 0 0.0060306 0 0.00597922)
(0.00521289 -0.00018172 0 0.00566478 0 0.00549097)
(0.00481131 -3.2819e-05 0 0.00524608 0 0.00503297)
(0.00451294 -4.18777e-05 0 0.00489831 0 0.00464616)
(0.00423027 -7.20826e-05 0 0.004557 0 0.00432733)
(0.0039884 -0.000105509 0 0.00424895 0 0.00406424)
(0.00378721 -0.000142684 0 0.00398758 0 0.00384471)
(0.0036159 -0.00017925 0 0.00376815 0 0.00365885)
(0.00346554 -0.000213471 0 0.00358254 0 0.0034991)
(0.00333369 -0.000245115 0 0.00342376 0 0.00335983)
(0.00321582 -0.000273953 0 0.00328628 0 0.00323685)
(0.00310975 -0.000299966 0 0.00316589 0 0.00312704)
(0.00301366 -0.000323309 0 0.00305932 0 0.003028)
(0.00292437 -0.000343276 0 0.00296415 0 0.00293799)
(0.00284273 -0.000359395 0 0.00287845 0 0.00285566)
(0.00276775 -0.000370759 0 0.00280053 0 0.00278006)
(0.00270248 -0.000376009 0 0.00272754 0 0.00271055)
(0.00264547 -0.00038352 0 0.00265235 0 0.00264746)
(0.00603138 -0.000368663 0 0.00627906 0 0.00622934)
(0.00574743 -0.000108058 0 0.00636179 0 0.00605315)
(0.00553705 3.89956e-05 0 0.00608913 0 0.00582716)
(0.00537057 4.52531e-05 0 0.00580078 0 0.00558751)
(0.00517575 2.96951e-05 0 0.00552634 0 0.00535504)
(0.00498454 1.22765e-05 0 0.00527401 0 0.00513925)
(0.00481081 -1.06055e-05 0 0.00505233 0 0.00494318)
(0.00465354 -3.73799e-05 0 0.00485892 0 0.0047665)
(0.00450844 -6.50379e-05 0 0.00468878 0 0.00460763)
(0.00437512 -9.10466e-05 0 0.00453776 0 0.00446448)
(0.00425387 -0.000116641 0 0.00440281 0 0.00433507)
(0.00414208 -0.000139587 0 0.00428147 0 0.00421759)
(0.00404028 -0.000161204 0 0.00417169 0 0.00411038)
(0.00394519 -0.000179312 0 0.00407178 0 0.0040122)
(0.00385795 -0.000193245 0 0.00397999 0 0.0039219)
(0.00377848 -0.000203587 0 0.00389416 0 0.00383865)
(0.00371044 -0.000208086 0 0.00381049 0 0.0037618)
(0.00365588 -0.000220149 0 0.0037218 0 0.00369173)
(0.00611907 -0.000313088 0 0.00645673 0 0.00629256)
(0.00595775 -8.3907e-05 0 0.00659036 0 0.00624248)
(0.0058562 4.3989e-05 0 0.00646516 0 0.00616197)
(0.00579665 7.65088e-05 0 0.00632137 0 0.00605827)
(0.00570741 8.6709e-05 0 0.00618034 0 0.00594019)
(0.00560105 8.74053e-05 0 0.00603333 0 0.00581554)
(0.00549413 8.11605e-05 0 0.00588806 0 0.00568992)
(0.00538831 6.92888e-05 0 0.00574925 0 0.00556698)
(0.00528292 5.23091e-05 0 0.00561824 0 0.00544887)
(0.00518184 3.60842e-05 0 0.00549544 0 0.00533668)
(0.00508396 1.93583e-05 0 0.00538095 0 0.00523082)
(0.00499107 4.08713e-06 0 0.00527462 0 0.00513149)
(0.00490419 -9.71751e-06 0 0.00517579 0 0.00503836)
(0.00482168 -2.16234e-05 0 0.00508361 0 0.00495117)
(0.00474474 -3.02805e-05 0 0.00499675 0 0.00486963)
(0.00467618 -3.54362e-05 0 0.00491292 0 0.00479338)
(0.00461741 -3.54547e-05 0 0.00482869 0 0.0047222)
(0.00457385 -4.70764e-05 0 0.00473958 0 0.00465659)
(0.00615412 -0.00027862 0 0.00645486 0 0.00630482)
(0.00603551 -8.67837e-05 0 0.00657066 0 0.00628786)
(0.00596645 2.75551e-05 0 0.00653203 0 0.00625772)
(0.00594705 7.77175e-05 0 0.00647185 0 0.00621411)
(0.00590893 0.000101693 0 0.0064079 0 0.00615861)
(0.00585451 0.000115984 0 0.00633153 0 0.00609415)
(0.00579836 0.000124027 0 0.00624791 0 0.00602364)
(0.00573637 0.000122618 0 0.0061623 0 0.00594962)
(0.00567038 0.000117786 0 0.00607714 0 0.00587419)
(0.0056033 0.00011248 0 0.00599381 0 0.00579892)
(0.00553605 0.000103398 0 0.00591304 0 0.00572483)
(0.00546926 9.67092e-05 0 0.00583548 0 0.00565278)
(0.00540519 9.09785e-05 0 0.00576103 0 0.00558317)
(0.00534212 8.63445e-05 0 0.00568935 0 0.00551636)
(0.00528421 8.50238e-05 0 0.00561937 0 0.00545247)
(0.00523527 8.6565e-05 0 0.0055493 0 0.0053916)
(0.0051899 8.84631e-05 0 0.00547674 0 0.00533381)
(0.00515768 8.01238e-05 0 0.00539995 0 0.00527998)
(0.00617499 -0.000249117 0 0.00643539 0 0.00630784)
(0.00607751 -8.61093e-05 0 0.0065428 0 0.00630098)
(0.0060215 1.22631e-05 0 0.00654815 0 0.00628942)
(0.00601167 6.76627e-05 0 0.00652708 0 0.00627181)
(0.00599682 9.67661e-05 0 0.00650076 0 0.00624779)
(0.00597274 0.000120443 0 0.00646464 0 0.00621777)
(0.00594449 0.000134395 0 0.00642117 0 0.00618241)
(0.0059115 0.000140791 0 0.00637413 0 0.00614292)
(0.00587629 0.00014353 0 0.00632507 0 0.00610025)
(0.00583607 0.000145396 0 0.00627501 0 0.00605558)
(0.00579339 0.000144745 0 0.00622446 0 0.00600963)
(0.00575268 0.000144197 0 0.00617406 0 0.00596327)
(0.00571051 0.000146217 0 0.00612379 0 0.00591696)
(0.00566937 0.000146878 0 0.00607338 0 0.0058712)
(0.00563176 0.000150798 0 0.00602215 0 0.00582637)
(0.00559813 0.000155066 0 0.00596868 0 0.00578266)
(0.00556654 0.000158948 0 0.00591168 0 0.00574037)
(0.0055501 0.000154347 0 0.00585081 0 0.0057003)
(0.0061951 -0.00022043 0 0.00641659 0 0.00630859)
(0.00611099 -8.27693e-05 0 0.00651168 0 0.0063047)
(0.00605751 -9.29871e-07 0 0.00653513 0 0.00629959)
(0.00604766 5.23836e-05 0 0.00653366 0 0.00629262)
(0.00604053 8.38854e-05 0 0.00652732 0 0.00628323)
(0.00602829 0.000110153 0 0.00651442 0 0.00627109)
(0.00601581 0.000127873 0 0.00649624 0 0.00625621)
(0.00600139 0.000141293 0 0.00647509 0 0.00623862)
(0.0059856 0.000151102 0 0.00645203 0 0.00621872)
(0.00596659 0.000156643 0 0.00642734 0 0.00619678)
(0.00594473 0.000163423 0 0.00640134 0 0.00617328)
(0.00592428 0.000170116 0 0.00637406 0 0.00614848)
(0.00590146 0.000175372 0 0.00634551 0 0.00612283)
(0.00587641 0.000182705 0 0.00631528 0 0.00609664)
(0.00585645 0.000188571 0 0.00628279 0 0.00607021)
(0.00584201 0.000196499 0 0.00624701 0 0.00604376)
(0.00582633 0.000201909 0 0.00620736 0 0.00601749)
(0.00582284 0.000201623 0 0.00616434 0 0.00599207)
(0.00621183 -0.000191582 0 0.00640063 0 0.00630871)
(0.00614043 -7.89464e-05 0 0.00648159 0 0.00630552)
(0.00608962 -1.28244e-05 0 0.00651236 0 0.00630215)
(0.00607163 3.40291e-05 0 0.00652104 0 0.00629847)
(0.00606366 6.56381e-05 0 0.00652426 0 0.00629419)
(0.00605675 9.1322e-05 0 0.00652257 0 0.00628914)
(0.00604938 0.000112941 0 0.006517 0 0.00628311)
(0.00604324 0.000129299 0 0.00650939 0 0.00627603)
(0.0060347 0.000142791 0 0.00650052 0 0.0062679)
(0.00602574 0.000152062 0 0.0064905 0 0.00625871)
(0.00601841 0.000162642 0 0.00647931 0 0.00624857)
(0.00600874 0.000171641 0 0.00646689 0 0.00623751)
(0.00599897 0.000180492 0 0.00645288 0 0.0062257)
(0.00598918 0.000189793 0 0.00643703 0 0.00621334)
(0.00598216 0.000200694 0 0.00641856 0 0.00620045)
(0.00597813 0.000209957 0 0.00639704 0 0.00618719)
(0.00597231 0.00021643 0 0.0063721 0 0.00617367)
(0.00598137 0.000216768 0 0.00634471 0 0.00616034)
(0.00622844 -0.000164216 0 0.00638617 0 0.0063087)
(0.00616629 -7.2033e-05 0 0.00645371 0 0.00630556)
(0.00611534 -2.23981e-05 0 0.00648736 0 0.00630258)
(0.00609301 1.75186e-05 0 0.006502 0 0.00629963)
(0.00608226 4.848e-05 0 0.00651004 0 0.00629674)
(0.00607463 7.26389e-05 0 0.00651353 0 0.00629372)
(0.00606866 9.362e-05 0 0.00651364 0 0.00629054)
(0.00606278 0.000110209 0 0.00651199 0 0.00628718)
(0.00605688 0.000122884 0 0.00650926 0 0.00628351)
(0.00605306 0.000136114 0 0.00650563 0 0.00627955)
(0.00604942 0.000147709 0 0.00650124 0 0.00627531)
(0.00604605 0.000158939 0 0.00649575 0 0.00627069)
(0.00604285 0.000169092 0 0.00648896 0 0.00626573)
(0.00604016 0.000180334 0 0.0064806 0 0.00626054)
(0.00604028 0.00019043 0 0.00647006 0 0.00625499)
(0.00604115 0.000199969 0 0.00645724 0 0.00624927)
(0.00604003 0.000208463 0 0.00644202 0 0.00624336)
(0.00605385 0.000210487 0 0.00642523 0 0.00623744)
(0.00624091 -0.000136174 0 0.00637339 0 0.00630868)
(0.00618918 -6.55128e-05 0 0.00642952 0 0.00630553)
(0.00614075 -2.80343e-05 0 0.00646338 0 0.00630258)
(0.00611496 5.58561e-06 0 0.00648162 0 0.00629976)
(0.00610059 3.34894e-05 0 0.00649262 0 0.00629709)
(0.00609069 5.4819e-05 0 0.00649895 0 0.00629447)
(0.00608245 7.33572e-05 0 0.006502 0 0.00629194)
(0.00607423 8.93303e-05 0 0.00650297 0 0.00628951)
(0.00606995 0.000103064 0 0.00650268 0 0.00628706)
(0.00606794 0.000116349 0 0.00650141 0 0.00628466)
(0.00606655 0.000126901 0 0.00649932 0 0.00628226)
(0.00606328 0.000138509 0 0.00649621 0 0.00627978)
(0.00606291 0.000148528 0 0.006492 0 0.00627727)
(0.00606292 0.000159884 0 0.0064865 0 0.00627473)
(0.00606386 0.000168453 0 0.00647948 0 0.00627214)
(0.00607056 0.00017789 0 0.00647085 0 0.0062695)
(0.00607015 0.000185301 0 0.00646074 0 0.00626684)
(0.00608184 0.000188538 0 0.00644977 0 0.00626422)
(0.00625189 -0.000108448 0 0.00636254 0 0.00630862)
(0.0062064 -5.48113e-05 0 0.00640935 0 0.0063055)
(0.0061631 -2.80397e-05 0 0.0064416 0 0.00630253)
(0.00613682 -1.54472e-06 0 0.00646171 0 0.00629968)
(0.00611841 2.03907e-05 0 0.00647473 0 0.00629701)
(0.00610442 3.94375e-05 0 0.00648311 0 0.00629449)
(0.00609685 5.54919e-05 0 0.00648797 0 0.00629203)
(0.00608941 6.96436e-05 0 0.00649054 0 0.00628975)
(0.00608404 8.39516e-05 0 0.00649146 0 0.00628754)
(0.0060788 9.47671e-05 0 0.00649112 0 0.0062854)
(0.0060761 0.000105989 0 0.00648976 0 0.00628338)
(0.006076 0.000115073 0 0.0064874 0 0.00628144)
(0.00607665 0.000125033 0 0.006484 0 0.00627955)
(0.0060754 0.000133668 0 0.00647947 0 0.00627768)
(0.00607746 0.00014295 0 0.00647379 0 0.00627585)
(0.00608277 0.000149918 0 0.00646707 0 0.00627413)
(0.00608089 0.000155 0 0.00645945 0 0.00627241)
(0.00609441 0.000158775 0 0.00645149 0 0.0062709)
(0.00626159 -8.23744e-05 0 0.00635378 0 0.00630865)
(0.00622216 -4.24414e-05 0 0.00639313 0 0.00630549)
(0.00618254 -2.42561e-05 0 0.00642289 0 0.00630247)
(0.0061539 -4.65265e-06 0 0.00644358 0 0.00629965)
(0.00613477 1.13733e-05 0 0.00645779 0 0.00629693)
(0.00612135 2.82999e-05 0 0.00646751 0 0.00629439)
(0.00610928 4.10399e-05 0 0.00647379 0 0.00629198)
(0.00610249 5.29668e-05 0 0.00647747 0 0.00628969)
(0.00609563 6.44601e-05 0 0.00647923 0 0.00628749)
(0.00609115 7.36545e-05 0 0.00647955 0 0.0062854)
(0.00608885 8.35751e-05 0 0.00647858 0 0.00628338)
(0.00608497 9.21554e-05 0 0.00647657 0 0.00628147)
(0.00608606 0.000100488 0 0.00647352 0 0.00627966)
(0.00608785 0.000106939 0 0.00646961 0 0.00627797)
(0.00608794 0.000114837 0 0.00646474 0 0.00627628)
(0.00608861 0.00012046 0 0.00645911 0 0.00627467)
(0.00608998 0.000125452 0 0.00645294 0 0.00627318)
(0.00610442 0.000128783 0 0.00644659 0 0.00627186)
(0.00626852 -5.61966e-05 0 0.00634708 0 0.00630865)
(0.00623363 -2.97686e-05 0 0.00638063 0 0.00630544)
(0.00619744 -1.82148e-05 0 0.00640773 0 0.00630242)
(0.00616948 -5.35744e-06 0 0.00642799 0 0.00629957)
(0.00615111 7.24847e-06 0 0.00644279 0 0.0062969)
(0.00613494 1.87314e-05 0 0.00645326 0 0.00629432)
(0.00612179 2.88831e-05 0 0.00646037 0 0.00629189)
(0.00611545 3.87502e-05 0 0.00646486 0 0.00628959)
(0.00610726 4.6786e-05 0 0.00646729 0 0.00628735)
(0.00610124 5.52034e-05 0 0.00646813 0 0.00628529)
(0.00609944 6.25624e-05 0 0.00646755 0 0.00628326)
(0.00609826 6.91159e-05 0 0.00646594 0 0.00628138)
(0.00609516 7.61312e-05 0 0.00646333 0 0.00627953)
(0.00609503 8.19851e-05 0 0.00645986 0 0.00627778)
(0.00609798 8.69921e-05 0 0.00645577 0 0.00627615)
(0.00609911 9.16843e-05 0 0.00645105 0 0.00627455)
(0.00609816 9.58842e-05 0 0.00644599 0 0.00627309)
(0.00610716 9.78184e-05 0 0.00644081 0 0.00627176)
(0.00627267 -2.90129e-05 0 0.0063425 0 0.00630861)
(0.00624218 -1.54669e-05 0 0.00637214 0 0.00630543)
(0.00620794 -9.18533e-06 0 0.00639696 0 0.0063024)
(0.00618197 -1.76369e-06 0 0.00641645 0 0.00629956)
(0.00616248 5.69069e-06 0 0.00643107 0 0.00629684)
(0.00614691 1.23682e-05 0 0.00644178 0 0.00629429)
(0.00613421 1.95944e-05 0 0.0064492 0 0.00629185)
(0.00612472 2.53783e-05 0 0.00645408 0 0.00628952)
(0.00611704 3.09639e-05 0 0.00645684 0 0.00628731)
(0.00611341 3.70936e-05 0 0.00645796 0 0.00628519)
(0.00610781 4.24551e-05 0 0.00645772 0 0.00628316)
(0.00610484 4.75703e-05 0 0.00645638 0 0.0062812)
(0.00610678 5.19485e-05 0 0.00645422 0 0.00627942)
(0.0061046 5.685e-05 0 0.00645126 0 0.00627768)
(0.00610292 6.01745e-05 0 0.00644773 0 0.00627599)
(0.00610428 6.32768e-05 0 0.00644378 0 0.0062744)
(0.00610355 6.66567e-05 0 0.00643955 0 0.00627292)
(0.00611333 6.75061e-05 0 0.00643528 0 0.00627159)
(0.00627538 -2.11435e-06 0 0.00634036 0 0.00630861)
(0.00624509 -6.62631e-07 0 0.00636819 0 0.00630543)
(0.00621396 1.36135e-06 0 0.00639193 0 0.00630244)
(0.00618826 2.89995e-06 0 0.00641068 0 0.00629956)
(0.00616906 5.23924e-06 0 0.00642488 0 0.00629684)
(0.00615374 7.74352e-06 0 0.00643526 0 0.00629428)
(0.00613951 1.03904e-05 0 0.00644245 0 0.00629179)
(0.00613034 1.38353e-05 0 0.0064472 0 0.00628949)
(0.00612479 1.6658e-05 0 0.00644987 0 0.00628724)
(0.00611946 2.01848e-05 0 0.006451 0 0.00628517)
(0.00611644 2.30885e-05 0 0.00645079 0 0.00628314)
(0.00611366 2.65747e-05 0 0.00644957 0 0.0062812)
(0.00611134 2.94086e-05 0 0.00644754 0 0.00627933)
(0.00610939 3.1492e-05 0 0.00644491 0 0.0062776)
(0.00610792 3.48239e-05 0 0.0064418 0 0.00627594)
(0.00611219 3.7356e-05 0 0.00643827 0 0.0062743)
(0.00610884 3.8927e-05 0 0.00643457 0 0.00627278)
(0.00611319 4.02051e-05 -6.32773e-22 0.00643092 0 0.00627148)
(0.00627538 2.14663e-05 0 0.00634047 0 0.00630861)
(0.00624509 1.36709e-05 0 0.00636867 0 0.00630543)
(0.00621242 1.09221e-05 0 0.00639267 0 0.00630244)
(0.00618675 7.30429e-06 0 0.00641118 0 0.0062996)
(0.00616906 5.33762e-06 0 0.00642473 0 0.00629684)
(0.00615374 3.09285e-06 0 0.0064344 0 0.00629428)
(0.00614318 2.73998e-06 0 0.00644092 0 0.00629181)
(0.00613401 2.57412e-06 0 0.00644503 0 0.00628949)
(0.00612679 3.59888e-06 0 0.00644713 0 0.00628724)
(0.00612352 4.02125e-06 0 0.00644779 0 0.00628512)
(0.00611849 5.35025e-06 0 0.00644722 0 0.00628309)
(0.00611591 6.86688e-06 0 0.0064458 0 0.00628116)
(0.00611364 8.36037e-06 0 0.00644367 0 0.00627934)
(0.00611434 9.95694e-06 0 0.00644098 0 0.00627755)
(0.00611544 1.21362e-05 0 0.00643789 0 0.00627585)
(0.00611207 1.35971e-05 0 0.00643459 0 0.00627426)
(0.00611177 1.43063e-05 0 0.0064311 0 0.00627276)
(0.00611882 1.54358e-05 7.06847e-22 0.00642765 0 0.00627139)
(0.00627267 4.45194e-05 0 0.00634212 0 0.00630861)
(0.0062422 2.65959e-05 0 0.00637292 0 0.00630547)
(0.00620644 1.91548e-05 0 0.00639847 0 0.00630244)
(0.00618209 1.10912e-05 0 0.00641688 0 0.00629957)
(0.00616413 3.52049e-06 0 0.00642951 0 0.00629688)
(0.00615039 -2.26493e-06 0 0.00643808 0 0.00629429)
(0.00613954 -5.84888e-06 0 0.00644355 0 0.00629182)
(0.00613226 -8.65257e-06 0 0.00644664 0 0.00628948)
(0.0061267 -1.03899e-05 0 0.00644787 0 0.00628722)
(0.00612152 -1.15425e-05 0 0.00644782 0 0.0062851)
(0.00612067 -1.16463e-05 0 0.00644672 0 0.00628307)
(0.0061181 -1.16235e-05 0 0.00644487 0 0.00628114)
(0.00611598 -1.05095e-05 0 0.00644242 0 0.00627927)
(0.00611665 -9.38246e-06 0 0.00643956 0 0.00627748)
(0.00611537 -8.94863e-06 0 0.00643635 0 0.00627576)
(0.00611464 -8.49305e-06 0 0.00643299 0 0.00627413)
(0.00611426 -6.50332e-06 0 0.00642948 0 0.0062725)
(0.00611856 -6.83112e-06 3.92545e-22 0.00642616 0 0.00627113)
(0.00626992 6.75198e-05 0 0.00634449 0 0.00630865)
(0.00623503 3.97364e-05 0 0.00638048 0 0.00630544)
(0.00619748 2.63432e-05 0 0.00640887 0 0.00630246)
(0.00617109 1.20103e-05 0 0.00642659 0 0.00629959)
(0.00615437 -8.61745e-07 0 0.00643752 0 0.00629687)
(0.00614354 -8.75784e-06 0 0.00644438 0 0.00629427)
(0.00613599 -1.65302e-05 0 0.00644817 0 0.0062918)
(0.00612834 -2.08487e-05 0 0.00644965 0 0.00628938)
(0.00612275 -2.42199e-05 0 0.00644952 0 0.00628709)
(0.00612127 -2.6278e-05 0 0.00644822 0 0.00628484)
(0.00611807 -2.6968e-05 0 0.00644607 0 0.00628263)
(0.0061176 -2.8191e-05 0 0.00644329 0 0.00628051)
(0.00611746 -2.84455e-05 0 0.00644 0 0.00627841)
(0.00611552 -2.84234e-05 0 0.0064363 0 0.00627627)
(0.00611396 -2.73214e-05 0 0.00643244 0 0.00627425)
(0.00611557 -2.7081e-05 0 0.00642838 0 0.00627222)
(0.0061148 -2.59837e-05 0 0.00642425 0 0.00627019)
(0.00611592 -2.53401e-05 -4.36394e-22 0.00642034 0 0.00626835)
(0.00626712 9.0584e-05 0 0.00634622 0 0.00630865)
(0.00622494 5.39651e-05 0 0.00639182 0 0.00630546)
(0.00618251 3.27867e-05 0 0.00642417 0 0.00630244)
(0.00615697 9.72835e-06 0 0.00644046 0 0.00629954)
(0.00614442 -6.33788e-06 0 0.00644931 0 0.00629667)
(0.00613448 -1.82903e-05 0 0.00645402 0 0.00629375)
(0.00612623 -2.6686e-05 0 0.00645553 0 0.00629086)
(0.00612327 -3.40349e-05 0 0.00645475 0 0.00628789)
(0.0061186 -3.7475e-05 0 0.00645252 0 0.00628479)
(0.00611619 -4.0058e-05 0 0.00644922 0 0.00628158)
(0.0061139 -4.22289e-05 0 0.00644508 0 0.0062782)
(0.00610983 -4.18954e-05 0 0.00644019 0 0.00627467)
(0.00610813 -4.32731e-05 0 0.00643467 0 0.00627093)
(0.00610936 -4.24136e-05 0 0.00642871 0 0.00626711)
(0.00610591 -4.14863e-05 0 0.0064223 0 0.00626314)
(0.00610303 -4.02927e-05 0 0.00641558 0 0.00625898)
(0.00610304 -3.90289e-05 0 0.0064088 0 0.0062548)
(0.00610534 -3.82991e-05 0 0.00640217 0 0.00625059)
(0.00626562 0.000114979 0 0.00634535 0 0.00630862)
(0.00621185 7.29154e-05 0 0.00640756 0 0.00630533)
(0.0061625 3.9887e-05 0 0.00644 0 0.00630188)
(0.0061385 7.50113e-06 0 0.00644966 0 0.00629808)
(0.00612858 -1.15797e-05 0 0.00645369 0 0.00629375)
(0.00612122 -2.53726e-05 0 0.00645325 0 0.00628866)
(0.00611317 -3.55242e-05 0 0.00644824 0 0.00628272)
(0.00610649 -4.16186e-05 0 0.00644045 0 0.00627597)
(0.00610113 -4.54016e-05 0 0.00643088 0 0.00626828)
(0.0060936 -4.72917e-05 0 0.00642015 0 0.0062598)
(0.00608787 -4.8477e-05 0 0.00640838 0 0.00625055)
(0.00607975 -4.83207e-05 0 0.0063957 0 0.00624053)
(0.00607174 -4.65427e-05 0 0.00638232 0 0.00622999)
(0.00606606 -4.58203e-05 0 0.00636831 0 0.00621896)
(0.00605573 -4.47463e-05 0 0.00635369 0 0.0062075)
(0.00604822 -4.12316e-05 0 0.00633866 0 0.00619577)
(0.00603825 -3.86882e-05 0 0.00632349 0 0.00618388)
(0.00603385 -3.49655e-05 5.20844e-22 0.00630855 0 0.006172)
(0.00626929 0.00014153 0 0.00633957 0 0.0063082)
(0.00619534 9.691e-05 0 0.00644674 0 0.00630326)
(0.0061316 4.43034e-05 0 0.00647333 0 0.00629601)
(0.00610832 6.98906e-06 0 0.00646524 0 0.00628573)
(0.00609843 -1.27093e-05 0 0.00645621 0 0.00627198)
(0.00608079 -2.60452e-05 0 0.00644229 0 0.00625471)
(0.00606236 -3.59599e-05 0 0.00642149 0 0.00623422)
(0.00604522 -4.01482e-05 0 0.00639574 0 0.00621096)
(0.00602289 -4.14102e-05 0 0.00636641 0 0.00618539)
(0.00599944 -4.0432e-05 0 0.00633437 0 0.00615802)
(0.00597521 -3.77402e-05 0 0.00630046 0 0.00612939)
(0.00595083 -3.45416e-05 0 0.00626537 0 0.00609995)
(0.00592425 -3.01308e-05 0 0.00622952 0 0.00606998)
(0.00589821 -2.53077e-05 0 0.00619345 0 0.00603995)
(0.00587493 -2.05123e-05 0 0.00615736 0 0.00601001)
(0.00585028 -1.44955e-05 0 0.00612153 0 0.00598042)
(0.0058266 -9.43246e-06 0 0.00608624 0 0.00595127)
(0.00580659 -2.17461e-06 -5.36015e-22 0.00605236 0 0.00592309)
(0.00627655 0.000187573 0 0.00624972 0 0.00630409)
(0.00616086 0.000145655 0 0.00642913 0 0.00628587)
(0.00606642 5.67392e-05 0 0.00642709 0 0.00625471)
(0.00602469 1.62766e-05 0 0.00635767 0 0.00621106)
(0.00598251 4.35065e-06 0 0.00628102 0 0.006157)
(0.00592763 -5.04333e-06 0 0.00620086 0 0.00609535)
(0.00586881 -9.09627e-06 0 0.00612148 0 0.00602894)
(0.00580963 -9.54487e-06 0 0.00604527 0 0.00595993)
(0.0057486 -6.05813e-06 0 0.00597214 0 0.00589027)
(0.00568692 -7.10232e-07 0 0.00590143 0 0.00582115)
(0.00562713 7.52132e-06 0 0.00583303 0 0.00575359)
(0.00556801 1.57343e-05 0 0.00576697 0 0.00568823)
(0.00551169 2.40708e-05 0 0.00570314 0 0.00562531)
(0.00545829 3.56103e-05 0 0.00564157 0 0.00556509)
(0.00540617 4.47326e-05 0 0.00558231 0 0.00550772)
(0.00535706 5.49331e-05 0 0.00552514 0 0.00545316)
(0.00531112 6.63325e-05 0 0.00547015 0 0.00540147)
(0.00527143 7.83967e-05 -2.47936e-22 0.00541751 0 0.0053528)
(0.00628733 0.000238313 0 0.00614749 0 0.00627028)
(0.00603386 0.000244625 0 0.00637318 0 0.00617474)
(0.00583402 8.94831e-05 0 0.00639109 0 0.00604088)
(0.00571448 3.3654e-05 0 0.00631851 0 0.00588715)
(0.00558058 2.93465e-05 0 0.00616739 0 0.00572758)
(0.00543619 3.31312e-05 0 0.0059718 0 0.00557109)
(0.00530064 4.44584e-05 0 0.0057703 0 0.00542255)
(0.00517602 5.9534e-05 0 0.00558057 0 0.00528414)
(0.00505892 7.58381e-05 0 0.00540747 0 0.00515638)
(0.00495216 9.30655e-05 0 0.00525172 0 0.00503917)
(0.00485356 0.000109925 0 0.00511215 0 0.00493179)
(0.00476133 0.000125876 0 0.00498713 0 0.00483342)
(0.00467991 0.000142782 0 0.00487489 0 0.00474332)
(0.00460307 0.000158737 0 0.00477365 0 0.00466056)
(0.00453164 0.000174067 0 0.00468179 0 0.00458442)
(0.00446891 0.000189596 0 0.00459783 0 0.00451421)
(0.00441029 0.000204555 0 0.00452049 0 0.0044494)
(0.00435792 0.000220884 1.93673e-22 0.00444871 0 0.00438971)
(0.00617788 0.000375117 0 0.00578911 0 0.00605226)
(0.00552071 0.000412682 0 0.00461656 0 0.00565842)
(0.00508005 0.000239105 0 0.00403289 0 0.00527489)
(0.0048142 0.000162357 0 0.0039268 0 0.00493951)
(0.00456903 0.00012827 0 0.00390413 0 0.00465558)
(0.00434849 0.000121792 0 0.00386765 0 0.0044171)
(0.0041623 0.000134239 0 0.0038149 0 0.00421618)
(0.00400323 0.000157129 0 0.00375128 0 0.00404552)
(0.00386604 0.000182666 0 0.00368154 0 0.00389919)
(0.00374646 0.000210462 0 0.00360951 0 0.00377253)
(0.00364109 0.000237093 0 0.00353796 0 0.00366186)
(0.0035487 0.000263183 0 0.00346855 0 0.00356435)
(0.00346708 0.000288241 0 0.00340221 0 0.00347774)
(0.00339312 0.000311525 0 0.00333936 0 0.00340024)
(0.0033269 0.000334202 0 0.00328007 0 0.00333045)
(0.00326723 0.000355212 0 0.0032241 0 0.0032672)
(0.00321334 0.000374593 0 0.00317102 0 0.00320963)
(0.00316546 0.000396217 0 0.00311984 0 0.00315721)
(0.00530266 -0.000293063 0 0.0124204 0 0.00504451)
(0.00410157 -0.000162471 0 0.00873584 0 0.00416855)
(0.00352871 5.8006e-05 0 0.00620168 0 0.00362481)
(0.00320254 0.000199955 0 0.00479039 0 0.0032551)
(0.00296043 0.000261092 0 0.00394539 0 0.00298833)
(0.00277441 0.000297877 0 0.00340446 0 0.0027877)
(0.00262933 0.000329083 0 0.00303988 0 0.00263164)
(0.00251209 0.000357955 0 0.00278242 0 0.00250682)
(0.00241512 0.000385051 0 0.00259298 0 0.00240467)
(0.00233384 0.000410633 0 0.00244862 0 0.00231944)
(0.00226416 0.000434946 0 0.00233528 0 0.0022472)
(0.00220413 0.000458128 0 0.002244 0 0.00218508)
(0.00215203 0.000479711 0 0.00216884 0 0.00213104)
(0.00210605 0.0004998 0 0.00210577 0 0.00208353)
(0.00206516 0.000518502 0 0.00205198 0 0.00204137)
(0.00202862 0.000535476 0 0.00200541 0 0.00200369)
(0.0019968 0.000550682 0 0.00196441 0 0.00196978)
(0.00196742 0.000566101 0 0.00192669 0 0.00193926)
(0.00251881 0.000657903 0 -0.0032832 0 0.00255113)
(0.00193172 6.83703e-06 0 -4.0062e-05 0 0.00191585)
(0.00164748 0.000112951 0 0.000708191 0 0.00162418)
(0.00146976 0.000226341 0 0.000944606 0 0.00144725)
(0.00134886 0.000307311 0 0.00102366 0 0.00132968)
(0.00126613 0.000370133 0 0.00104713 0 0.0012478)
(0.00120775 0.000422806 0 0.00104939 0 0.00118897)
(0.00116527 0.000468493 0 0.00104372 0 0.00114587)
(0.00113388 0.00050914 0 0.00103572 0 0.0011139)
(0.00111062 0.000545758 0 0.0010278 0 0.00109011)
(0.00109345 0.000579097 0 0.00102091 0 0.00107242)
(0.00108089 0.00060965 0 0.00101539 0 0.00105938)
(0.00107183 0.000637575 0 0.00101123 0 0.0010499)
(0.00106548 0.000663079 0 0.00100834 0 0.00104317)
(0.0010612 0.000686302 0 0.00100657 0 0.00103859)
(0.00105847 0.000707333 0 0.00100575 0 0.00103565)
(0.00105738 0.00072606 0 0.00100573 0 0.00103401)
(0.00105655 0.000743764 0 0.00100635 0 0.00103348)
(0.000216757 0.000610882 0 0.000256393 0 0.000215354)
(0.000206261 0.000628278 0 0.000221843 0 0.000204739)
(0.000199211 0.000623011 0 0.00020382 0 0.000195594)
(0.00019174 0.000618049 0 0.000191199 0 0.00018765)
(0.000184758 0.000613703 0 0.000181611 0 0.000180727)
(0.000178625 0.000609804 0 0.000174042 0 0.000174687)
(0.000173269 0.000606214 0 0.000167863 0 0.00016942)
(0.00016858 0.000602866 0 0.000162711 0 0.000164832)
(0.000164485 0.000599737 0 0.000158369 0 0.000160842)
(0.000160914 0.000596789 0 0.000154688 0 0.000157376)
(0.000157818 0.000594036 0 0.000151564 0 0.000154379)
(0.000155139 0.000591449 0 0.000148912 0 0.000151797)
(0.000152829 0.000589001 0 0.000146665 0 0.000149577)
(0.000150846 0.000586691 0 0.000144767 0 0.000147682)
(0.000149152 0.00058451 0 0.000143176 0 0.000146074)
(0.00014771 0.000582456 0 0.000141855 0 0.000144719)
(0.000146532 0.000580523 0 0.000140776 0 0.000143589)
(0.000145365 0.000578654 0 0.000139946 0 0.000142658)
(1.85571e-05 9.74311e-07 0 2.16213e-05 0 2.01163e-05)
(5.02354e-05 -1.71127e-06 0 6.31116e-05 0 5.63627e-05)
(6.00984e-05 -3.53781e-06 -3.41185e-26 6.83325e-05 -3.61462e-23 6.4284e-05)
(6.84839e-05 -3.74907e-06 0 7.04807e-05 0 6.97066e-05)
(7.6652e-05 -2.95485e-06 2.31293e-26 7.22691e-05 2.45038e-23 7.46541e-05)
(8.43484e-05 -1.40752e-06 6.92168e-23 7.44577e-05 2.21433e-23 7.9654e-05)
(9.16608e-05 6.93026e-07 -6.84715e-23 7.71039e-05 4.40582e-23 8.46877e-05)
(9.91022e-05 3.29493e-06 -6.89607e-23 8.05821e-05 -2.44654e-23 9.01431e-05)
(0.000106307 6.28941e-06 1.51304e-23 8.48184e-05 0 9.59262e-05)
(0.000113174 9.431e-06 -1.62308e-25 8.93945e-05 -1.8411e-23 0.000101701)
(0.00012005 1.2707e-05 5.26868e-23 9.42685e-05 0 0.000107565)
(0.000126819 1.61583e-05 0 9.93496e-05 0 0.000113489)
(0.00013349 1.97884e-05 3.13501e-23 0.000104572 -1.35266e-23 0.000119434)
(0.000140049 2.35834e-05 -2.98585e-25 0.000109899 1.00263e-23 0.000125375)
(0.000146486 2.75218e-05 -3.10593e-23 0.0001153 1.19024e-23 0.000131289)
(0.000152801 3.15858e-05 -2.28654e-23 0.000120761 1.12034e-23 0.000137172)
(0.000158994 3.57564e-05 6.0902e-25 0.000126264 -7.0006e-24 0.000143015)
(0.000165078 4.00192e-05 2.26612e-23 0.000131804 0 0.00014882)
(0.000171064 4.43608e-05 0 0.000137372 0 0.00015459)
(0.000176959 4.87684e-05 1.62691e-23 0.000142963 0 0.000160328)