/*--------------------------------*- C++ -*----------------------------------*\
| =========                 |                                                 |
| \\      /  F ield         | OpenFOAM Extend Project: Open source CFD        |
|  \\    /   O peration     | Version:  1.6-ext                               |
|   \\  /    A nd           | Web:      www.extend-project.de                 |
|    \\/     M anipulation  |                                                 |
\*---------------------------------------------------------------------------*/
FoamFile
{
    version     2.0;
    format      ascii;
    class       surfaceScalarField;
    location    "0";
    object      phi;
}
// * * * * * * * * * * * * * * * * * * * * * * * * * * * * * * * * * * * * * //

dimensions      [0 3 -1 0 0 0 0];

internalField   nonuniform List<scalar> 
24170
(
3.09504e-06
3.88547e-08
3.02562e-06
6.94144e-08
2.96784e-06
5.77831e-08
2.91027e-06
5.75758e-08
2.85558e-06
5.46809e-08
2.80517e-06
5.04132e-08
2.75907e-06
4.60984e-08
2.71703e-06
4.20435e-08
2.67874e-06
3.82868e-08
2.64391e-06
3.48321e-08
2.61224e-06
3.16728e-08
2.58344e-06
2.87924e-08
2.55728e-06
2.61658e-08
2.53352e-06
2.37613e-08
2.51197e-06
2.15443e-08
2.49245e-06
1.95235e-08
2.47443e-06
1.80214e-08
1.51235e-08
2.45931e-06
3.46312e-06
3.21812e-08
3.45237e-06
8.01591e-08
3.43813e-06
7.20269e-08
3.42409e-06
7.16114e-08
3.4093e-06
6.94708e-08
3.39404e-06
6.5681e-08
3.37851e-06
6.16255e-08
3.36288e-06
5.76681e-08
3.34732e-06
5.38532e-08
3.33195e-06
5.01988e-08
3.31691e-06
4.6719e-08
3.30228e-06
4.34148e-08
3.28818e-06
4.02731e-08
3.27467e-06
3.72667e-08
3.26186e-06
3.43511e-08
3.24992e-06
3.14682e-08
3.23954e-06
2.84032e-08
2.36053e-08
3.23105e-06
3.80954e-06
3.48343e-08
3.81671e-06
7.29944e-08
3.81706e-06
7.16725e-08
3.81645e-06
7.22215e-08
3.8143e-06
7.16164e-08
3.81082e-06
6.91652e-08
3.8064e-06
6.60487e-08
3.80131e-06
6.27579e-08
3.79574e-06
5.94177e-08
3.78985e-06
5.60893e-08
3.78376e-06
5.28145e-08
3.77756e-06
4.96116e-08
3.77136e-06
4.64766e-08
3.76524e-06
4.33832e-08
3.75932e-06
4.02749e-08
3.75375e-06
3.70388e-08
3.74877e-06
3.33791e-08
2.82961e-08
3.74408e-06
4.20558e-06
3.3818e-08
4.21373e-06
6.48404e-08
4.21712e-06
6.82805e-08
4.21959e-06
6.97476e-08
4.22117e-06
7.00398e-08
4.22185e-06
6.84855e-08
4.22187e-06
6.60323e-08
4.22139e-06
6.32342e-08
4.22054e-06
6.02731e-08
4.21939e-06
5.72346e-08
4.21803e-06
5.41731e-08
4.21653e-06
5.11151e-08
4.21494e-06
4.80603e-08
4.21335e-06
4.49827e-08
4.2118e-06
4.18218e-08
4.21038e-06
3.8457e-08
4.20911e-06
3.4653e-08
2.98719e-08
4.20753e-06
4.64034e-06
3.0784e-08
4.64777e-06
5.74109e-08
4.65231e-06
6.3744e-08
4.65602e-06
6.60334e-08
4.65919e-06
6.68682e-08
4.66174e-06
6.59424e-08
4.66377e-06
6.4003e-08
4.6654e-06
6.16016e-08
4.66672e-06
5.89551e-08
4.66778e-06
5.61657e-08
4.66866e-06
5.32964e-08
4.6694e-06
5.03793e-08
4.67004e-06
4.74186e-08
4.67063e-06
4.43924e-08
4.6712e-06
4.12482e-08
4.67177e-06
3.78911e-08
4.67224e-06
3.41823e-08
2.9918e-08
4.67219e-06
5.11811e-06
2.72651e-08
5.125e-06
5.05258e-08
5.13023e-06
5.85101e-08
5.13471e-06
6.15583e-08
5.13875e-06
6.28244e-08
5.14229e-06
6.24078e-08
5.14538e-06
6.09118e-08
5.14812e-06
5.88579e-08
5.15059e-06
5.64886e-08
5.15283e-06
5.39224e-08
5.1549e-06
5.12308e-08
5.15682e-06
4.84523e-08
5.15864e-06
4.55976e-08
5.16038e-06
4.26528e-08
5.16205e-06
3.95816e-08
5.16362e-06
3.63255e-08
5.16497e-06
3.28244e-08
2.90492e-08
5.16584e-06
5.64438e-06
2.38886e-08
5.65083e-06
4.40835e-08
5.65647e-06
5.28705e-08
5.66145e-06
5.65694e-08
5.66607e-06
5.82114e-08
5.67025e-06
5.82251e-08
5.67404e-06
5.71251e-08
5.6775e-06
5.53909e-08
5.68071e-06
5.32807e-08
5.68371e-06
5.09279e-08
5.68652e-06
4.84124e-08
5.6892e-06
4.57799e-08
5.69175e-06
4.30491e-08
5.69418e-06
4.02179e-08
5.69649e-06
3.72693e-08
5.69864e-06
3.41789e-08
5.70052e-06
3.094e-08
2.75997e-08
5.70197e-06
4.40843e-06
2.15734e-08
4.41269e-06
3.98161e-08
4.41686e-06
4.87073e-08
4.42065e-06
5.27722e-08
4.42421e-06
5.46582e-08
4.4275e-06
5.49306e-08
4.43054e-06
5.40844e-08
4.43337e-06
5.25672e-08
4.43601e-06
5.0638e-08
4.4385e-06
4.8438e-08
4.44086e-06
4.6053e-08
4.4431e-06
4.3534e-08
4.44525e-06
4.09062e-08
4.44729e-06
3.81765e-08
4.44922e-06
3.53415e-08
4.451e-06
3.2397e-08
4.45258e-06
2.9359e-08
2.62981e-08
4.45388e-06
5.14222e-06
1.9209e-08
5.14657e-06
3.54688e-08
5.15105e-06
4.42307e-08
5.15528e-06
4.85425e-08
5.15931e-06
5.06281e-08
5.1631e-06
5.11353e-08
5.16665e-06
5.05339e-08
5.16998e-06
4.9236e-08
5.17312e-06
4.74965e-08
5.1761e-06
4.54617e-08
5.17893e-06
4.32228e-08
5.18163e-06
4.08361e-08
5.1842e-06
3.8334e-08
5.18664e-06
3.5733e-08
5.18894e-06
3.30427e-08
5.19106e-06
3.02753e-08
5.19296e-06
2.74612e-08
2.46789e-08
5.19458e-06
5.99817e-06
1.68281e-08
6.00254e-06
3.11069e-08
6.00726e-06
3.95048e-08
6.01188e-06
4.39204e-08
6.01637e-06
4.61407e-08
6.02066e-06
4.68434e-08
6.02473e-06
4.6467e-08
6.02858e-06
4.53834e-08
6.03224e-06
4.38381e-08
6.03572e-06
4.19799e-08
6.03904e-06
3.99033e-08
6.04221e-06
3.76699e-08
6.04522e-06
3.53189e-08
6.04808e-06
3.2876e-08
6.05076e-06
3.03621e-08
6.05323e-06
2.78009e-08
6.05547e-06
2.52299e-08
2.27241e-08
6.05742e-06
6.99663e-06
1.44624e-08
7.00095e-06
2.67911e-08
7.00586e-06
3.4589e-08
7.01083e-06
3.8949e-08
7.01575e-06
4.12252e-08
7.02052e-06
4.20702e-08
7.0251e-06
4.18876e-08
7.02948e-06
4.10058e-08
7.03366e-06
3.96551e-08
7.03766e-06
3.79825e-08
7.04148e-06
3.60844e-08
7.04512e-06
3.40262e-08
7.04859e-06
3.1853e-08
7.05187e-06
2.95982e-08
7.05494e-06
2.72908e-08
7.05778e-06
2.49613e-08
7.06036e-06
2.26484e-08
2.04172e-08
7.06267e-06
8.16134e-06
1.21399e-08
8.16557e-06
2.25596e-08
8.17061e-06
2.9544e-08
8.17589e-06
3.36743e-08
8.1812e-06
3.59117e-08
8.18644e-06
3.68342e-08
8.19152e-06
3.68038e-08
8.19642e-06
3.61046e-08
8.20113e-06
3.4945e-08
8.20565e-06
3.34656e-08
8.20997e-06
3.17619e-08
8.2141e-06
2.99013e-08
8.21802e-06
2.79329e-08
8.22172e-06
2.58951e-08
8.22519e-06
2.38214e-08
8.22841e-06
2.17448e-08
8.23135e-06
1.97015e-08
1.77447e-08
8.23403e-06
9.51999e-06
9.87923e-09
9.52412e-06
1.84292e-08
9.52924e-06
2.44219e-08
9.53477e-06
2.81422e-08
9.54045e-06
3.02295e-08
9.54614e-06
3.11527e-08
9.55172e-06
3.12232e-08
9.55714e-06
3.06798e-08
9.56238e-06
2.97035e-08
9.56743e-06
2.84231e-08
9.57226e-06
2.69294e-08
9.57687e-06
2.52888e-08
9.58125e-06
2.35515e-08
9.58539e-06
2.17576e-08
9.58927e-06
1.99419e-08
9.59288e-06
1.81362e-08
9.59621e-06
1.63719e-08
1.46915e-08
9.59926e-06
1.11049e-05
7.68554e-09
1.11089e-05
1.43947e-08
1.11141e-05
1.9254e-08
1.11199e-05
2.23903e-08
1.11259e-05
2.42025e-08
1.1132e-05
2.50388e-08
1.11381e-05
2.51497e-08
1.1144e-05
2.47273e-08
1.11498e-05
2.39211e-08
1.11554e-05
2.28419e-08
1.11607e-05
2.15716e-08
1.11659e-05
2.01716e-08
1.11707e-05
1.86895e-08
1.11753e-05
1.7164e-08
1.11796e-05
1.56274e-08
1.11837e-05
1.41083e-08
1.11874e-05
1.26326e-08
1.12335e-08
1.11909e-05
1.29538e-05
5.5461e-09
1.29577e-05
1.04253e-08
1.2963e-05
1.40373e-08
1.29689e-05
1.6431e-08
1.29753e-05
1.78382e-08
1.29818e-05
1.84923e-08
1.29884e-05
1.85763e-08
1.29949e-05
1.82336e-08
1.30012e-05
1.75781e-08
1.30074e-05
1.6698e-08
1.30133e-05
1.56606e-08
1.30189e-05
1.45182e-08
1.30243e-05
1.33119e-08
1.30294e-05
1.20753e-08
1.30342e-05
1.08362e-08
1.30387e-05
9.61811e-09
1.30429e-05
8.44138e-09
7.33137e-09
1.30468e-05
1.51106e-05
3.42465e-09
1.51145e-05
6.4539e-09
1.51199e-05
8.7167e-09
1.51261e-05
1.02264e-08
1.51328e-05
1.11024e-08
1.51398e-05
1.14783e-08
1.51469e-05
1.1467e-08
1.5154e-05
1.11604e-08
1.51609e-05
1.06336e-08
1.51677e-05
9.94713e-09
1.51742e-05
9.14903e-09
1.51804e-05
8.27775e-09
1.51864e-05
7.36445e-09
1.5192e-05
6.43468e-09
1.51974e-05
5.50951e-09
1.52024e-05
4.60638e-09
1.52071e-05
3.74006e-09
2.92949e-09
1.52115e-05
1.76266e-05
1.2528e-09
1.76307e-05
2.35391e-09
1.76363e-05
3.15109e-09
1.76429e-05
3.64431e-09
1.76501e-05
3.87372e-09
1.76577e-05
3.88507e-09
1.76654e-05
3.71924e-09
1.76732e-05
3.41266e-09
1.76808e-05
2.9978e-09
1.76883e-05
2.50292e-09
1.76955e-05
1.95229e-09
1.77024e-05
1.36668e-09
1.7709e-05
7.63876e-10
1.77152e-05
1.59091e-10
1.77212e-05
-4.34866e-10
1.77268e-05
-1.00734e-09
1.77321e-05
-1.54922e-09
-2.04727e-09
1.77371e-05
1.78283e-05
-8.00537e-10
1.78321e-05
-1.5411e-09
1.78375e-05
-2.1686e-09
1.78438e-05
-2.67995e-09
1.78508e-05
-3.09669e-09
1.78581e-05
-3.45418e-09
1.78656e-05
-3.78166e-09
1.78731e-05
-4.09683e-09
1.78805e-05
-4.40915e-09
1.78877e-05
-4.72267e-09
1.78947e-05
-5.03744e-09
1.79014e-05
-5.35081e-09
1.79079e-05
-5.65863e-09
1.7914e-05
-5.95608e-09
1.79198e-05
-6.23828e-09
1.79253e-05
-6.50073e-09
1.79305e-05
-6.73909e-09
-6.9448e-09
1.79354e-05
1.58832e-05
-2.64119e-09
1.58867e-05
-5.04121e-09
1.58915e-05
-6.9502e-09
1.58971e-05
-8.34135e-09
1.59033e-05
-9.30135e-09
1.59098e-05
-9.95406e-09
1.59164e-05
-1.03968e-08
1.5923e-05
-1.06962e-08
1.59295e-05
-1.08995e-08
1.59358e-05
-1.10397e-08
1.59419e-05
-1.1138e-08
1.59478e-05
-1.12072e-08
1.59534e-05
-1.12546e-08
1.59587e-05
-1.1284e-08
1.59638e-05
-1.12968e-08
1.59686e-05
-1.12936e-08
1.59731e-05
-1.12734e-08
-1.1231e-08
1.59774e-05
1.41504e-05
-4.37368e-09
1.41537e-05
-8.36669e-09
1.41583e-05
-1.14846e-08
1.41636e-05
-1.3643e-08
1.41693e-05
-1.50322e-08
1.41752e-05
-1.58917e-08
1.41812e-05
-1.63866e-08
1.41871e-05
-1.66282e-08
1.41929e-05
-1.66991e-08
1.41986e-05
-1.66581e-08
1.4204e-05
-1.65443e-08
1.42091e-05
-1.63829e-08
1.42141e-05
-1.61901e-08
1.42188e-05
-1.59762e-08
1.42232e-05
-1.57477e-08
1.42274e-05
-1.55085e-08
1.42314e-05
-1.52605e-08
-1.5001e-08
1.42352e-05
1.26067e-05
-6.03524e-09
1.261e-05
-1.16594e-08
1.26145e-05
-1.59647e-08
1.26196e-05
-1.87662e-08
1.2625e-05
-2.04571e-08
1.26305e-05
-2.14284e-08
1.26361e-05
-2.19047e-08
1.26415e-05
-2.20383e-08
1.26467e-05
-2.19462e-08
1.26518e-05
-2.17098e-08
1.26566e-05
-2.13818e-08
1.26612e-05
-2.09964e-08
1.26656e-05
-2.05761e-08
1.26698e-05
-2.0136e-08
1.26737e-05
-1.96861e-08
1.26774e-05
-1.92332e-08
1.2681e-05
-1.87815e-08
-1.83309e-08
1.26843e-05
1.12314e-05
-7.59322e-09
1.12347e-05
-1.50297e-08
1.12393e-05
-2.05276e-08
1.12443e-05
-2.38035e-08
1.12495e-05
-2.56562e-08
1.12547e-05
-2.66448e-08
1.12599e-05
-2.70287e-08
1.12648e-05
-2.70011e-08
1.12696e-05
-2.67139e-08
1.12742e-05
-2.62665e-08
1.12785e-05
-2.57201e-08
1.12826e-05
-2.51144e-08
1.12865e-05
-2.44757e-08
1.12902e-05
-2.38216e-08
1.12937e-05
-2.31642e-08
1.1297e-05
-2.25118e-08
1.13e-05
-2.18706e-08
-2.12427e-08
1.1303e-05
1.0006e-05
-8.93094e-09
1.00095e-05
-1.8596e-08
1.00143e-05
-2.52758e-08
1.00192e-05
-2.87835e-08
1.00242e-05
-3.0654e-08
1.00292e-05
-3.1567e-08
1.00339e-05
-3.17818e-08
1.00385e-05
-3.15407e-08
1.00428e-05
-3.10289e-08
1.00469e-05
-3.0356e-08
1.00507e-05
-2.95868e-08
1.00544e-05
-2.87635e-08
1.00578e-05
-2.79138e-08
1.00611e-05
-2.70559e-08
1.00641e-05
-2.62026e-08
1.00669e-05
-2.53636e-08
1.00696e-05
-2.45477e-08
-2.37619e-08
1.00721e-05
8.914e-06
-9.83594e-09
8.9179e-06
-2.24883e-08
8.92284e-06
-3.02219e-08
8.92771e-06
-3.36548e-08
8.93248e-06
-3.54223e-08
8.93708e-06
-3.61641e-08
8.94143e-06
-3.61284e-08
8.94551e-06
-3.56263e-08
8.94935e-06
-3.48672e-08
8.95295e-06
-3.39599e-08
8.95633e-06
-3.29677e-08
8.9595e-06
-3.19322e-08
8.96247e-06
-3.08799e-08
8.96524e-06
-2.98278e-08
8.96782e-06
-2.87872e-08
8.97023e-06
-2.77669e-08
8.97246e-06
-2.67759e-08
-2.58231e-08
8.97452e-06
7.94088e-06
-1.00454e-08
7.94532e-06
-2.69345e-08
7.95031e-06
-3.52105e-08
7.95492e-06
-3.8262e-08
7.95938e-06
-3.988e-08
7.96357e-06
-4.0362e-08
7.96744e-06
-3.99961e-08
7.971e-06
-3.91881e-08
7.9743e-06
-3.81584e-08
7.97734e-06
-3.70063e-08
7.98016e-06
-3.57897e-08
7.98278e-06
-3.45464e-08
7.9852e-06
-3.32998e-08
7.98743e-06
-3.20638e-08
7.98949e-06
-3.08466e-08
7.99138e-06
-2.9655e-08
7.99311e-06
-2.84999e-08
-2.73992e-08
7.99468e-06
7.07276e-06
-8.47307e-09
7.07836e-06
-3.2534e-08
7.08315e-06
-4.00023e-08
7.0873e-06
-4.24101e-08
7.0913e-06
-4.38821e-08
7.09496e-06
-4.40203e-08
7.09823e-06
-4.32655e-08
7.10116e-06
-4.21186e-08
7.10379e-06
-4.07922e-08
7.10616e-06
-3.9374e-08
7.10829e-06
-3.79175e-08
7.1102e-06
-3.6457e-08
7.11191e-06
-3.50121e-08
7.11344e-06
-3.35922e-08
7.11479e-06
-3.22003e-08
7.11597e-06
-3.08349e-08
7.11697e-06
-2.94962e-08
-2.81784e-08
7.11775e-06
6.29692e-06
-2.87818e-09
6.30483e-06
-4.04475e-08
6.30949e-06
-4.46596e-08
6.31324e-06
-4.61637e-08
6.31656e-06
-4.72037e-08
6.31925e-06
-4.67034e-08
6.3214e-06
-4.54189e-08
6.32315e-06
-4.38721e-08
6.32458e-06
-4.22179e-08
6.32572e-06
-4.05172e-08
6.32662e-06
-3.88134e-08
6.3273e-06
-3.71346e-08
6.32778e-06
-3.54957e-08
6.32809e-06
-3.39018e-08
6.32824e-06
-3.23507e-08
6.32824e-06
-3.08325e-08
6.32808e-06
-2.93378e-08
-2.78415e-08
6.32774e-06
5.60188e-06
1.01374e-08
5.61164e-06
-5.02053e-08
5.61555e-06
-4.85644e-08
5.61901e-06
-4.96241e-08
5.62143e-06
-4.96281e-08
5.62258e-06
-4.78473e-08
5.62275e-06
-4.5594e-08
5.62223e-06
-4.33502e-08
5.62119e-06
-4.11765e-08
5.61975e-06
-3.90797e-08
5.61801e-06
-3.70699e-08
5.61602e-06
-3.51523e-08
5.61385e-06
-3.33261e-08
5.61154e-06
-3.15856e-08
5.60911e-06
-2.99193e-08
5.60658e-06
-2.83029e-08
5.60393e-06
-2.66931e-08
-2.49244e-08
5.60102e-06
5.00706e-06
5.387e-09
5.0036e-06
-4.67435e-08
4.99552e-06
-4.04907e-08
4.98897e-06
-4.30767e-08
4.98227e-06
-4.29235e-08
4.9752e-06
-4.07791e-08
4.96782e-06
-3.82102e-08
4.96016e-06
-3.56933e-08
4.95229e-06
-3.33091e-08
4.94429e-06
-3.10739e-08
4.93621e-06
-2.89925e-08
4.92812e-06
-2.70611e-08
4.92006e-06
-2.52705e-08
4.91209e-06
-2.36087e-08
4.90423e-06
-2.20599e-08
4.89652e-06
-2.05975e-08
4.889e-06
-1.91697e-08
-1.74615e-08
4.88154e-06
4.46194e-06
4.41519e-06
4.3747e-06
4.33163e-06
4.2887e-06
4.24792e-06
4.20971e-06
4.17402e-06
4.14071e-06
4.10964e-06
4.08064e-06
4.05358e-06
4.02831e-06
4.0047e-06
3.98264e-06
3.96205e-06
3.94288e-06
3.92541e-06
1.12824e-08
-1.12824e-08
2.26174e-08
-1.13349e-08
2.97012e-08
-7.08377e-09
3.14406e-08
-1.7393e-09
2.78961e-08
3.54459e-09
1.9631e-08
8.26516e-09
7.37321e-09
1.22578e-08
-8.21888e-09
1.55922e-08
-2.6548e-08
1.83292e-08
-4.71222e-08
2.05743e-08
-6.96279e-08
2.25057e-08
-9.38444e-08
2.42166e-08
-1.19584e-07
2.57399e-08
-1.46674e-07
2.70896e-08
-1.7495e-07
2.82762e-08
-2.04261e-07
2.93106e-08
-2.34466e-07
3.02053e-08
-2.6544e-07
3.09736e-08
-2.97069e-07
3.16293e-08
-3.29254e-07
3.21855e-08
-3.61909e-07
3.26549e-08
-3.94959e-07
3.30493e-08
-4.28338e-07
3.33793e-08
-4.61992e-07
3.36546e-08
-4.95876e-07
3.38837e-08
-5.2995e-07
3.40742e-08
-5.64183e-07
3.42327e-08
-5.98548e-07
3.43648e-08
-6.33023e-07
3.44752e-08
-6.67591e-07
3.4568e-08
-7.02237e-07
3.46462e-08
-7.3695e-07
3.47126e-08
-7.71719e-07
3.47689e-08
-8.06535e-07
3.48167e-08
-8.41392e-07
3.48569e-08
-8.76282e-07
3.48902e-08
-9.112e-07
3.49173e-08
-9.46139e-07
3.4939e-08
-9.81095e-07
3.49567e-08
-1.01607e-06
3.4973e-08
-1.05106e-06
3.49928e-08
-1.08609e-06
3.50241e-08
-1.12116e-06
3.50787e-08
-1.15634e-06
3.51791e-08
-1.19173e-06
3.53907e-08
-1.2273e-06
3.55626e-08
-1.26292e-06
3.562e-08
-1.29861e-06
3.56889e-08
-1.33438e-06
3.577e-08
-1.37023e-06
3.5856e-08
-1.40617e-06
3.59415e-08
-1.44219e-06
3.60223e-08
-1.47829e-06
3.60953e-08
-1.51445e-06
3.61581e-08
-1.55066e-06
3.62083e-08
-1.5869e-06
3.6244e-08
-1.62316e-06
3.62633e-08
-1.65943e-06
3.62645e-08
-1.69567e-06
3.62459e-08
-1.73188e-06
3.6206e-08
-1.76802e-06
3.61433e-08
-1.80408e-06
3.60564e-08
-1.84002e-06
3.59438e-08
-1.87583e-06
3.58043e-08
-1.91146e-06
3.56366e-08
-1.9469e-06
3.54393e-08
-1.98212e-06
3.52113e-08
-2.01707e-06
3.49513e-08
-2.05172e-06
3.46581e-08
-2.08605e-06
3.43305e-08
-2.12002e-06
3.39672e-08
-2.15359e-06
3.3567e-08
-2.18672e-06
3.31286e-08
-2.21937e-06
3.26505e-08
-2.2515e-06
3.21316e-08
-2.28307e-06
3.15702e-08
-2.31403e-06
3.09648e-08
-2.34435e-06
3.0314e-08
-2.37396e-06
2.9616e-08
-2.40283e-06
2.88692e-08
-2.43091e-06
2.80719e-08
-2.45813e-06
2.72225e-08
-2.48445e-06
2.63193e-08
-2.50981e-06
2.53606e-08
-2.53415e-06
2.43451e-08
-2.55742e-06
2.32715e-08
-2.57956e-06
2.21387e-08
-2.60051e-06
2.0946e-08
-2.6202e-06
1.9693e-08
-2.63858e-06
1.83798e-08
-2.65559e-06
1.70069e-08
-2.67117e-06
1.55755e-08
-2.68525e-06
1.40874e-08
-2.6978e-06
1.25448e-08
-2.70875e-06
1.09507e-08
-2.71806e-06
9.30865e-09
-2.72568e-06
7.62245e-09
-2.73158e-06
5.89635e-09
-2.73571e-06
4.13449e-09
-2.73805e-06
2.33962e-09
-2.73856e-06
5.10485e-10
-2.73722e-06
-1.33944e-09
-2.73403e-06
-3.188e-09
-2.729e-06
-5.03049e-09
-2.72213e-06
-6.86876e-09
-2.71343e-06
-8.70222e-09
-2.7029e-06
-1.05298e-08
-2.69055e-06
-1.23503e-08
-2.67639e-06
-1.41621e-08
-2.66042e-06
-1.59639e-08
-2.64267e-06
-1.77539e-08
-2.62314e-06
-1.95305e-08
-2.60185e-06
-2.1292e-08
-2.57881e-06
-2.30367e-08
-2.55405e-06
-2.47626e-08
-2.52758e-06
-2.64678e-08
-2.49943e-06
-2.81503e-08
-2.46962e-06
-2.98078e-08
-2.43819e-06
-3.14382e-08
-2.40515e-06
-3.30389e-08
-2.37054e-06
-3.46078e-08
-2.3344e-06
-3.61426e-08
-2.29675e-06
-3.76414e-08
-2.25765e-06
-3.91023e-08
-2.21713e-06
-4.05238e-08
-2.17522e-06
-4.19041e-08
-2.13198e-06
-4.32417e-08
-2.08745e-06
-4.45349e-08
-2.04167e-06
-4.57816e-08
-1.99469e-06
-4.69797e-08
-1.94656e-06
-4.81273e-08
-1.89734e-06
-4.92232e-08
-1.84707e-06
-5.02668e-08
-1.79581e-06
-5.12578e-08
-1.74362e-06
-5.21959e-08
-1.69054e-06
-5.308e-08
-1.63663e-06
-5.39081e-08
-1.58195e-06
-5.46789e-08
-1.52656e-06
-5.53928e-08
-1.4705e-06
-5.60513e-08
-1.41385e-06
-5.66568e-08
-1.35664e-06
-5.72077e-08
-1.29894e-06
-5.77008e-08
-1.2408e-06
-5.81373e-08
-1.18228e-06
-5.85218e-08
-1.12342e-06
-5.88581e-08
-1.06428e-06
-5.91422e-08
-1.00491e-06
-5.93712e-08
-9.45352e-07
-5.95558e-08
-8.85651e-07
-5.97018e-08
-8.25853e-07
-5.97976e-08
-7.66007e-07
-5.98458e-08
-7.06136e-07
-5.98715e-08
-6.46278e-07
-5.98577e-08
-5.8648e-07
-5.97984e-08
-5.26744e-07
-5.97362e-08
-4.67131e-07
-5.96128e-08
-4.07636e-07
-5.94945e-08
-3.48262e-07
-5.9374e-08
-2.89065e-07
-5.91975e-08
-2.29981e-07
-5.90834e-08
-1.71133e-07
-5.88477e-08
-1.12486e-07
-5.86472e-08
-5.38862e-08
-5.86e-08
4.68533e-09
-5.85714e-08
6.27193e-08
-5.80339e-08
1.1978e-07
-5.70606e-08
1.76128e-07
-5.63482e-08
2.31924e-07
-5.57955e-08
2.87244e-07
-5.53206e-08
3.42122e-07
-5.48781e-08
3.96546e-07
-5.44241e-08
4.5045e-07
-5.39039e-08
5.03671e-07
-5.32206e-08
5.55892e-07
-5.22212e-08
6.06391e-07
-5.04993e-08
6.53922e-07
-4.75307e-08
6.94762e-07
-4.08399e-08
7.23446e-07
-2.86844e-08
1.09972e-08
7.12449e-07
4.70033e-09
-1.59829e-08
3.73969e-09
-1.03745e-08
-2.33623e-09
-1.00795e-09
-1.21991e-08
8.12354e-09
-2.49492e-08
1.62946e-08
-4.01123e-08
2.34282e-08
-5.74232e-08
2.95687e-08
-7.6639e-08
3.4808e-08
-9.75704e-08
3.92607e-08
-1.20077e-07
4.30806e-08
-1.43986e-07
4.64151e-08
-1.69126e-07
4.93561e-08
-1.95344e-07
5.19582e-08
-2.22509e-07
5.42551e-08
-2.50505e-07
5.62716e-08
-2.79224e-07
5.80301e-08
-3.08572e-07
5.95529e-08
-3.38461e-07
6.08623e-08
-3.68812e-07
6.1981e-08
-3.99558e-07
6.29309e-08
-4.30636e-07
6.37331e-08
-4.61994e-07
6.44073e-08
-4.93587e-07
6.4972e-08
-5.25376e-07
6.54437e-08
-5.5733e-07
6.58376e-08
-5.89422e-07
6.61671e-08
-6.21634e-07
6.64441e-08
-6.53948e-07
6.66789e-08
-6.86353e-07
6.68805e-08
-7.18842e-07
6.70565e-08
-7.51409e-07
6.72133e-08
-7.84053e-07
6.73562e-08
-8.16773e-07
6.74896e-08
-8.49573e-07
6.7617e-08
-8.82458e-07
6.7741e-08
-9.15431e-07
6.7864e-08
-9.48501e-07
6.79874e-08
-9.81675e-07
6.81125e-08
-1.01496e-06
6.82403e-08
-1.04836e-06
6.83718e-08
-1.08187e-06
6.85081e-08
-1.1155e-06
6.86503e-08
-1.14922e-06
6.88012e-08
-1.18301e-06
6.89678e-08
-1.21678e-06
6.91571e-08
-1.25056e-06
6.93418e-08
-1.28444e-06
6.95035e-08
-1.31841e-06
6.96617e-08
-1.35246e-06
6.98193e-08
-1.38658e-06
6.99728e-08
-1.42075e-06
7.01175e-08
-1.45498e-06
7.02489e-08
-1.48925e-06
7.03627e-08
-1.52354e-06
7.04547e-08
-1.55786e-06
7.05211e-08
-1.59217e-06
7.05583e-08
-1.62647e-06
7.05628e-08
-1.66074e-06
7.05314e-08
-1.69495e-06
7.0461e-08
-1.7291e-06
7.03486e-08
-1.76314e-06
7.01913e-08
-1.79707e-06
6.99864e-08
-1.83086e-06
6.97313e-08
-1.86448e-06
6.94233e-08
-1.8979e-06
6.90601e-08
-1.9311e-06
6.86392e-08
-1.96405e-06
6.81582e-08
-1.99671e-06
6.76148e-08
-2.02906e-06
6.70067e-08
-2.06106e-06
6.63313e-08
-2.09268e-06
6.55865e-08
-2.12389e-06
6.47696e-08
-2.15464e-06
6.38782e-08
-2.18489e-06
6.29096e-08
-2.21462e-06
6.1861e-08
-2.24378e-06
6.07295e-08
-2.27233e-06
5.95122e-08
-2.30022e-06
5.82058e-08
-2.32741e-06
5.68071e-08
-2.35386e-06
5.53126e-08
-2.3795e-06
5.37191e-08
-2.4043e-06
5.20229e-08
-2.42821e-06
5.02208e-08
-2.45116e-06
4.83095e-08
-2.4731e-06
4.62859e-08
-2.49397e-06
4.41474e-08
-2.51372e-06
4.18917e-08
-2.5323e-06
3.95172e-08
-2.54963e-06
3.7023e-08
-2.56566e-06
3.44091e-08
-2.58032e-06
3.16765e-08
-2.59358e-06
2.88274e-08
-2.60535e-06
2.5865e-08
-2.6156e-06
2.2794e-08
-2.62427e-06
1.962e-08
-2.63131e-06
1.63499e-08
-2.63668e-06
1.29911e-08
-2.64034e-06
9.55179e-09
-2.64224e-06
6.03922e-09
-2.64236e-06
2.45908e-09
-2.64067e-06
-1.18061e-09
-2.63717e-06
-4.84385e-09
-2.63186e-06
-8.49952e-09
-2.62474e-06
-1.21481e-08
-2.61582e-06
-1.57894e-08
-2.6051e-06
-1.94218e-08
-2.59258e-06
-2.30427e-08
-2.57829e-06
-2.66494e-08
-2.56221e-06
-3.02392e-08
-2.54436e-06
-3.38089e-08
-2.52476e-06
-3.73555e-08
-2.50342e-06
-4.08754e-08
-2.48034e-06
-4.43654e-08
-2.45556e-06
-4.78219e-08
-2.42908e-06
-5.12411e-08
-2.40093e-06
-5.46192e-08
-2.37113e-06
-5.79521e-08
-2.3397e-06
-6.12356e-08
-2.30667e-06
-6.44652e-08
-2.27207e-06
-6.7636e-08
-2.23594e-06
-7.07435e-08
-2.1983e-06
-7.37832e-08
-2.15919e-06
-7.67512e-08
-2.11865e-06
-7.96439e-08
-2.07671e-06
-8.24579e-08
-2.03343e-06
-8.51901e-08
-1.98883e-06
-8.78375e-08
-1.94297e-06
-9.03967e-08
-1.89589e-06
-9.28637e-08
-1.84763e-06
-9.5234e-08
-1.79826e-06
-9.7504e-08
-1.74781e-06
-9.96711e-08
-1.69634e-06
-1.01734e-07
-1.64391e-06
-1.03692e-07
-1.59056e-06
-1.05545e-07
-1.53635e-06
-1.07291e-07
-1.48133e-06
-1.08926e-07
-1.42556e-06
-1.10447e-07
-1.3691e-06
-1.11854e-07
-1.312e-06
-1.13151e-07
-1.25431e-06
-1.14343e-07
-1.19609e-06
-1.15427e-07
-1.1374e-06
-1.16396e-07
-1.07828e-06
-1.17253e-07
-1.0188e-06
-1.18005e-07
-9.58997e-07
-1.18662e-07
-8.98922e-07
-1.19216e-07
-8.38632e-07
-1.19662e-07
-7.78169e-07
-1.20018e-07
-7.17574e-07
-1.20297e-07
-6.56892e-07
-1.20479e-07
-5.96169e-07
-1.20568e-07
-5.35433e-07
-1.20608e-07
-4.74718e-07
-1.20573e-07
-4.14063e-07
-1.20453e-07
-3.53484e-07
-1.20315e-07
-2.93013e-07
-1.20084e-07
-2.32668e-07
-1.19839e-07
-1.72449e-07
-1.19593e-07
-1.12387e-07
-1.1926e-07
-5.24958e-08
-1.18975e-07
7.3424e-09
-1.18686e-07
6.68627e-08
-1.18167e-07
1.25817e-07
-1.17555e-07
1.84363e-07
-1.17118e-07
2.42516e-07
-1.16187e-07
3.00272e-07
-1.14816e-07
3.57604e-07
-1.13681e-07
4.14504e-07
-1.12695e-07
4.70993e-07
-1.11809e-07
5.27073e-07
-1.10958e-07
5.82717e-07
-1.10068e-07
6.37848e-07
-1.09035e-07
6.92307e-07
-1.0768e-07
7.45785e-07
-1.05699e-07
7.97731e-07
-1.02445e-07
8.47066e-07
-9.68654e-08
8.92161e-07
-8.59355e-08
9.29298e-07
-6.58218e-08
-2.08277e-08
9.61123e-07
-5.23654e-09
-1.07462e-08
-1.66637e-08
1.05276e-09
-3.06411e-08
1.29694e-08
-4.59462e-08
2.34286e-08
-6.23946e-08
3.2743e-08
-8.0007e-08
4.10407e-08
-9.88174e-08
4.83791e-08
-1.18829e-07
5.48197e-08
-1.40017e-07
6.04491e-08
-1.62313e-07
6.53763e-08
-1.85607e-07
6.97085e-08
-2.09781e-07
7.35305e-08
-2.34728e-07
7.6905e-08
-2.60351e-07
7.98787e-08
-2.86568e-07
8.24888e-08
-3.13306e-07
8.47681e-08
-3.40501e-07
8.67475e-08
-3.68095e-07
8.84565e-08
-3.96038e-07
8.99239e-08
-4.24285e-07
9.11776e-08
-4.52796e-07
9.2244e-08
-4.81537e-07
9.31481e-08
-5.10478e-07
9.39131e-08
-5.39594e-07
9.45602e-08
-5.68865e-07
9.51087e-08
-5.98274e-07
9.55759e-08
-6.27807e-07
9.59771e-08
-6.57454e-07
9.63259e-08
-6.87207e-07
9.6634e-08
-7.17062e-07
9.69115e-08
-7.47016e-07
9.71668e-08
-7.77067e-07
9.74071e-08
-8.07216e-07
9.76382e-08
-8.37463e-07
9.78646e-08
-8.67812e-07
9.809e-08
-8.98265e-07
9.83168e-08
-9.28824e-07
9.85469e-08
-9.59493e-07
9.87814e-08
-9.90274e-07
9.90207e-08
-1.02117e-06
9.9265e-08
-1.05217e-06
9.95138e-08
-1.08329e-06
9.97664e-08
-1.11451e-06
1.00022e-07
-1.14582e-06
1.0028e-07
-1.1772e-06
1.00538e-07
-1.20865e-06
1.00789e-07
-1.24018e-06
1.01031e-07
-1.27178e-06
1.01268e-07
-1.30346e-06
1.01498e-07
-1.33521e-06
1.01718e-07
-1.36701e-06
1.0192e-07
-1.39886e-06
1.02101e-07
-1.43075e-06
1.02253e-07
-1.46267e-06
1.02371e-07
-1.4946e-06
1.02451e-07
-1.52653e-06
1.02487e-07
-1.55844e-06
1.02473e-07
-1.59031e-06
1.02407e-07
-1.62213e-06
1.02282e-07
-1.65388e-06
1.02096e-07
-1.68553e-06
1.01843e-07
-1.71707e-06
1.0152e-07
-1.74846e-06
1.01124e-07
-1.77969e-06
1.0065e-07
-1.81072e-06
1.00094e-07
-1.84154e-06
9.94547e-08
-1.8721e-06
9.87271e-08
-1.9024e-06
9.79082e-08
-1.93239e-06
9.69948e-08
-1.96204e-06
9.59832e-08
-1.99132e-06
9.48702e-08
-2.0202e-06
9.36521e-08
-2.04865e-06
9.23252e-08
-2.07663e-06
9.08857e-08
-2.1041e-06
8.93295e-08
-2.13102e-06
8.76524e-08
-2.15736e-06
8.58498e-08
-2.18307e-06
8.3917e-08
-2.20811e-06
8.18492e-08
-2.23244e-06
7.96411e-08
-2.25601e-06
7.72876e-08
-2.27877e-06
7.47835e-08
-2.30067e-06
7.21233e-08
-2.32166e-06
6.93021e-08
-2.34169e-06
6.63152e-08
-2.3607e-06
6.31581e-08
-2.37864e-06
5.98274e-08
-2.39544e-06
5.63202e-08
-2.41105e-06
5.26348e-08
-2.42541e-06
4.87709e-08
-2.43847e-06
4.47296e-08
-2.45015e-06
4.05139e-08
-2.46042e-06
3.61283e-08
-2.4692e-06
3.15794e-08
-2.47646e-06
2.68756e-08
-2.48213e-06
2.20269e-08
-2.48619e-06
1.70446e-08
-2.48858e-06
1.1941e-08
-2.48927e-06
6.72721e-09
-2.48822e-06
1.41208e-09
-2.48543e-06
-3.97285e-09
-2.48089e-06
-9.37865e-09
-2.47461e-06
-1.47811e-08
-2.46658e-06
-2.0176e-08
-2.45681e-06
-2.55612e-08
-2.4453e-06
-3.09335e-08
-2.43205e-06
-3.62892e-08
-2.41708e-06
-4.16245e-08
-2.40038e-06
-4.69349e-08
-2.38197e-06
-5.22161e-08
-2.36187e-06
-5.74631e-08
-2.34007e-06
-6.2671e-08
-2.3166e-06
-6.78348e-08
-2.29147e-06
-7.2949e-08
-2.26471e-06
-7.80082e-08
-2.23632e-06
-8.30067e-08
-2.20633e-06
-8.79386e-08
-2.17477e-06
-9.27976e-08
-2.14166e-06
-9.75768e-08
-2.10703e-06
-1.02269e-07
-2.0709e-06
-1.06868e-07
-2.03332e-06
-1.11366e-07
-1.99431e-06
-1.15758e-07
-1.95392e-06
-1.20038e-07
-1.91217e-06
-1.24202e-07
-1.86912e-06
-1.28244e-07
-1.8248e-06
-1.3216e-07
-1.77925e-06
-1.35946e-07
-1.73252e-06
-1.39595e-07
-1.68465e-06
-1.43102e-07
-1.63569e-06
-1.46459e-07
-1.5857e-06
-1.49663e-07
-1.53472e-06
-1.52713e-07
-1.48281e-06
-1.55607e-07
-1.43001e-06
-1.58345e-07
-1.37637e-06
-1.60925e-07
-1.32196e-06
-1.63341e-07
-1.26682e-06
-1.65587e-07
-1.21101e-06
-1.67665e-07
-1.15458e-06
-1.69578e-07
-1.09759e-06
-1.71335e-07
-1.04008e-06
-1.72934e-07
-9.82115e-07
-1.74362e-07
-9.23744e-07
-1.75623e-07
-8.6502e-07
-1.7673e-07
-8.05988e-07
-1.77695e-07
-7.46695e-07
-1.78509e-07
-6.87196e-07
-1.79161e-07
-6.27533e-07
-1.79681e-07
-5.67744e-07
-1.80087e-07
-5.07872e-07
-1.80351e-07
-4.47963e-07
-1.80478e-07
-3.88043e-07
-1.80528e-07
-3.28144e-07
-1.80472e-07
-2.68302e-07
-1.80295e-07
-2.08538e-07
-1.8008e-07
-1.48863e-07
-1.79759e-07
-8.93171e-08
-1.79385e-07
-2.9882e-08
-1.79028e-07
2.94093e-08
-1.78551e-07
8.83817e-08
-1.77947e-07
1.46999e-07
-1.77304e-07
2.05301e-07
-1.76469e-07
2.63242e-07
-1.75496e-07
3.20757e-07
-1.74632e-07
3.77968e-07
-1.73398e-07
4.34966e-07
-1.71815e-07
4.91652e-07
-1.70366e-07
5.4799e-07
-1.69033e-07
6.03967e-07
-1.67786e-07
6.59568e-07
-1.66559e-07
7.14756e-07
-1.65256e-07
7.69452e-07
-1.63731e-07
8.2351e-07
-1.61737e-07
8.76669e-07
-1.58858e-07
9.28511e-07
-1.54287e-07
9.78345e-07
-1.46699e-07
1.02546e-06
-1.33054e-07
1.06922e-06
-1.09574e-07
-6.598e-08
1.11437e-06
-1.3182e-08
2.4357e-09
-3.04407e-08
1.83114e-08
-4.83327e-08
3.08614e-08
-6.65438e-08
4.16397e-08
-8.51229e-08
5.13221e-08
-1.04179e-07
6.00966e-08
-1.23815e-07
6.80156e-08
-1.44105e-07
7.51094e-08
-1.65081e-07
8.14248e-08
-1.86732e-07
8.70282e-08
-2.09018e-07
9.19941e-08
-2.31879e-07
9.6392e-08
-2.55257e-07
1.00282e-07
-2.79093e-07
1.03715e-07
-3.0334e-07
1.06735e-07
-3.27952e-07
1.0938e-07
-3.52892e-07
1.11687e-07
-3.78125e-07
1.1369e-07
-4.03622e-07
1.15421e-07
-4.29357e-07
1.16912e-07
-4.55306e-07
1.18193e-07
-4.81449e-07
1.19291e-07
-5.07768e-07
1.20232e-07
-5.34248e-07
1.2104e-07
-5.60876e-07
1.21737e-07
-5.87643e-07
1.22343e-07
-6.14541e-07
1.22874e-07
-6.41562e-07
1.23347e-07
-6.68702e-07
1.23774e-07
-6.95959e-07
1.24168e-07
-7.2333e-07
1.24538e-07
-7.50815e-07
1.24892e-07
-7.78414e-07
1.25237e-07
-8.06128e-07
1.25579e-07
-8.33958e-07
1.2592e-07
-8.61905e-07
1.26264e-07
-8.8997e-07
1.26612e-07
-9.18155e-07
1.26966e-07
-9.46459e-07
1.27325e-07
-9.74882e-07
1.27688e-07
-1.00342e-06
1.28053e-07
-1.03207e-06
1.2842e-07
-1.06084e-06
1.28785e-07
-1.0897e-06
1.29148e-07
-1.11867e-06
1.29504e-07
-1.14773e-06
1.29852e-07
-1.17689e-06
1.3019e-07
-1.20614e-06
1.30518e-07
-1.23548e-06
1.30831e-07
-1.26488e-06
1.31124e-07
-1.29435e-06
1.31391e-07
-1.32388e-06
1.31625e-07
-1.35344e-06
1.31819e-07
-1.38304e-06
1.31967e-07
-1.41265e-06
1.32062e-07
-1.44226e-06
1.32099e-07
-1.47186e-06
1.3207e-07
-1.50142e-06
1.3197e-07
-1.53094e-06
1.31794e-07
-1.56038e-06
1.31536e-07
-1.58972e-06
1.31191e-07
-1.61896e-06
1.30754e-07
-1.64805e-06
1.30221e-07
-1.67699e-06
1.29586e-07
-1.70574e-06
1.28845e-07
-1.73428e-06
1.27994e-07
-1.76258e-06
1.27028e-07
-1.79062e-06
1.25944e-07
-1.81836e-06
1.24737e-07
-1.84578e-06
1.23403e-07
-1.87285e-06
1.21936e-07
-1.89953e-06
1.20334e-07
-1.92579e-06
1.1859e-07
-1.95161e-06
1.16701e-07
-1.97694e-06
1.1466e-07
-2.00175e-06
1.12463e-07
-2.026e-06
1.10103e-07
-2.04966e-06
1.07574e-07
-2.07268e-06
1.04869e-07
-2.09502e-06
1.01983e-07
-2.11664e-06
9.89069e-08
-2.13749e-06
9.56346e-08
-2.15752e-06
9.21587e-08
-2.1767e-06
8.84721e-08
-2.19495e-06
8.45682e-08
-2.21223e-06
8.04408e-08
-2.22849e-06
7.60846e-08
-2.24366e-06
7.14956e-08
-2.2577e-06
6.66708e-08
-2.27054e-06
6.16094e-08
-2.28212e-06
5.63123e-08
-2.29239e-06
5.07829e-08
-2.30129e-06
4.50269e-08
-2.30876e-06
3.90527e-08
-2.31476e-06
3.28712e-08
-2.31923e-06
2.64958e-08
-2.32212e-06
1.9942e-08
-2.32341e-06
1.32264e-08
-2.32305e-06
6.36572e-09
-2.32101e-06
-6.25712e-10
-2.31729e-06
-7.69242e-09
-2.31189e-06
-1.47751e-08
-2.30482e-06
-2.18587e-08
-2.29606e-06
-2.89353e-08
-2.28562e-06
-3.60002e-08
-2.2735e-06
-4.30488e-08
-2.25972e-06
-5.00763e-08
-2.24426e-06
-5.70773e-08
-2.22715e-06
-6.40462e-08
-2.20839e-06
-7.0977e-08