/*--------------------------------*- C++ -*----------------------------------*\
| =========                 |                                                 |
| \\      /  F ield         | OpenFOAM Extend Project: Open source CFD        |
|  \\    /   O peration     | Version:  1.6-ext                               |
|   \\  /    A nd           | Web:      www.extend-project.de                 |
|    \\/     M anipulation  |                                                 |
\*---------------------------------------------------------------------------*/
FoamFile
{
    version     2.0;
    format      ascii;
    class       volSymmTensorField;
    location    "0";
    object      R;
}
// * * * * * * * * * * * * * * * * * * * * * * * * * * * * * * * * * * * * * //

dimensions      [0 2 -2 0 0 0 0];

internalField   nonuniform List<symmTensor> 
12225
(
(0.228331 -0.634522 -0 0.27759 -0 0.223474)
(0.20344 -0.612575 -0 0.219563 -0 0.199905)
(0.184991 -0.57253 -0 0.187967 -0 0.180131)
(0.168635 -0.538149 -0 0.166195 -0 0.163878)
(0.155149 -0.509457 -0 0.150423 -0 0.150785)
(0.144477 -0.485812 -0 0.138801 -0 0.140457)
(0.136235 -0.466594 -0 0.130228 -0 0.132511)
(0.130058 -0.451295 -0 0.124026 -0 0.126598)
(0.125634 -0.439423 -0 0.119725 -0 0.122408)
(0.122694 -0.430518 -0 0.116974 -0 0.119672)
(0.120995 -0.424125 -0 0.115489 -0 0.118151)
(0.120324 -0.41983 -0 0.115038 -0 0.117637)
(0.120491 -0.417257 -0 0.115422 -0 0.117944)
(0.121329 -0.416073 -0 0.116475 -0 0.118911)
(0.122692 -0.415978 -0 0.11805 -0 0.120394)
(0.124473 -0.416738 -0 0.120023 -0 0.122271)
(0.126449 -0.418008 -0 0.122276 -0 0.124443)
(0.129761 -0.420197 -0 0.125922 -0 0.127411)
(0.338841 -0.0981846 -0 -0.474943 -0 0.342569)
(0.336315 -0.0518014 -0 -0.0043074 -0 0.330917)
(0.316776 -0.0848416 -0 0.144862 -0 0.309131)
(0.299528 -0.114615 -0 0.200792 -0 0.291753)
(0.287844 -0.137944 -0 0.225028 -0 0.280403)
(0.281951 -0.157809 -0 0.238024 -0 0.274465)
(0.280722 -0.175698 -0 0.247285 -0 0.273021)
(0.28314 -0.19223 -0 0.255813 -0 0.275216)
(0.28844 -0.207687 -0 0.264795 -0 0.280312)
(0.295994 -0.222172 -0 0.274623 -0 0.28768)
(0.305249 -0.235703 -0 0.28532 -0 0.296778)
(0.315731 -0.248269 -0 0.296756 -0 0.307143)
(0.327033 -0.259853 -0 0.308736 -0 0.318375)
(0.338806 -0.270455 -0 0.321058 -0 0.330141)
(0.350749 -0.280102 -0 0.33354 -0 0.342164)
(0.362529 -0.288838 -0 0.346051 -0 0.354219)
(0.373969 -0.297123 -0 0.358735 -0 0.366207)
(0.384662 -0.302817 -0 0.367162 -0 0.377681)
(0.281986 0.00767323 -0 0.76451 -0 0.280509)
(0.283775 0.00176755 -0 0.585396 -0 0.288577)
(0.283036 -0.0219493 -0 0.454084 -0 0.285318)
(0.279853 -0.0392754 -0 0.377604 -0 0.279067)
(0.27485 -0.0508597 -0 0.331206 -0 0.272743)
(0.27046 -0.0604005 -0 0.302224 -0 0.267381)
(0.267179 -0.0690167 -0 0.283829 -0 0.263316)
(0.265015 -0.0769114 -0 0.272165 -0 0.260601)
(0.263966 -0.084149 -0 0.265004 -0 0.259171)
(0.263982 -0.0908175 -0 0.260998 -0 0.258913)
(0.264954 -0.0969404 -0 0.259285 -0 0.25969)
(0.266751 -0.102554 -0 0.259286 -0 0.26136)
(0.269235 -0.107679 -0 0.260591 -0 0.26378)
(0.272263 -0.112334 -0 0.262901 -0 0.266813)
(0.275687 -0.116587 -0 0.265993 -0 0.270328)
(0.279309 -0.120363 -0 0.269733 -0 0.274202)
(0.283254 -0.123406 -0 0.274104 -0 0.278298)
(0.286803 -0.125328 -0 0.280225 -0 0.282401)
(0.25255 -0.0211486 -0 0.28085 -0 0.25691)
(0.251009 -0.0133974 -0 0.221766 -0 0.26142)
(0.254616 -0.0114655 -0 0.210089 -0 0.262575)
(0.257897 -0.014352 -0 0.219903 -0 0.261587)
(0.257491 -0.0178846 -0 0.229038 -0 0.2595)
(0.256032 -0.0222463 -0 0.234879 -0 0.256982)
(0.254375 -0.0272298 -0 0.238249 -0 0.254424)
(0.2527 -0.0323185 -0 0.239975 -0 0.252051)
(0.25112 -0.0372888 -0 0.240703 -0 0.249981)
(0.249763 -0.0420991 -0 0.240903 -0 0.248271)
(0.248703 -0.0466172 -0 0.240889 -0 0.246939)
(0.247937 -0.0509067 -0 0.240859 -0 0.245977)
(0.247471 -0.0548477 -0 0.240934 -0 0.245363)
(0.247186 -0.0584824 -0 0.241181 -0 0.245066)
(0.247101 -0.0617852 -0 0.241638 -0 0.245047)
(0.247166 -0.064623 -0 0.242324 -0 0.245262)
(0.24765 -0.0667598 -0 0.243155 -0 0.245658)
(0.24814 -0.0687296 -0 0.243306 -0 0.246176)
(0.243192 -0.0174138 -0 0.253064 -0 0.250908)
(0.23933 -0.00834299 -0 0.260077 -0 0.252097)
(0.241457 -0.00164703 -0 0.263276 -0 0.252581)
(0.245057 -0.002274 -0 0.265983 -0 0.252291)
(0.245762 -0.00418772 -0 0.264744 -0 0.251401)
(0.245447 -0.00649303 -0 0.261481 -0 0.250114)
(0.244886 -0.00922611 -0 0.257842 -0 0.248604)
(0.244102 -0.0121008 -0 0.25438 -0 0.247001)
(0.243043 -0.014971 -0 0.251248 -0 0.245396)
(0.241952 -0.0177899 -0 0.248489 -0 0.243849)
(0.240826 -0.0205158 -0 0.246103 -0 0.242401)
(0.239741 -0.0231254 -0 0.244069 -0 0.241074)
(0.238741 -0.0256124 -0 0.242358 -0 0.239877)
(0.237708 -0.0279032 -0 0.240941 -0 0.238815)
(0.236804 -0.0299382 -0 0.23978 -0 0.237881)
(0.236018 -0.0316162 -0 0.238813 -0 0.237067)
(0.235654 -0.0327876 -0 0.237839 -0 0.236357)
(0.235566 -0.0341506 -0 0.236179 -0 0.235743)
(0.241276 -0.0147478 -0 0.251184 -0 0.249195)
(0.236198 -0.00444079 -0 0.261446 -0 0.248762)
(0.235993 0.00166202 -0 0.259523 -0 0.248358)
(0.238176 0.0020069 -0 0.257255 -0 0.247797)
(0.238765 0.00136988 -0 0.254938 -0 0.247036)
(0.238686 0.000587864 -0 0.252547 -0 0.246094)
(0.238454 -0.000525673 -0 0.250425 -0 0.245015)
(0.238067 -0.00191229 -0 0.248574 -0 0.243846)
(0.237406 -0.00342477 -0 0.246902 -0 0.242629)
(0.236567 -0.00492298 -0 0.245361 -0 0.241399)
(0.235682 -0.0064624 -0 0.243934 -0 0.240181)
(0.234716 -0.00790985 -0 0.242615 -0 0.238995)
(0.233797 -0.00932833 -0 0.241401 -0 0.237853)
(0.232812 -0.0105815 -0 0.240282 -0 0.236766)
(0.231892 -0.0116155 -0 0.239228 -0 0.235736)
(0.231086 -0.0124511 -0 0.238161 -0 0.234766)
(0.23066 -0.0129357 -0 0.23688 -0 0.233853)
(0.230741 -0.0138947 -0 0.234902 -0 0.233004)
(0.241854 -0.0123747 -0 0.2552 -0 0.248711)
(0.236302 -0.003328 -0 0.261393 -0 0.247595)
(0.234389 0.00176062 -0 0.258762 -0 0.246627)
(0.235104 0.00310309 -0 0.256386 -0 0.245715)
(0.23521 0.00357339 -0 0.2547 -0 0.244803)
(0.234871 0.0036652 -0 0.252998 -0 0.243865)
(0.234534 0.00346459 -0 0.25135 -0 0.242892)
(0.234127 0.00301066 -0 0.24981 -0 0.24189)
(0.233533 0.00231234 -0 0.248356 -0 0.240869)
(0.23288 0.00162168 -0 0.246974 -0 0.239839)
(0.232106 0.000883793 -0 0.245665 -0 0.238811)
(0.231289 0.0001894 -0 0.244429 -0 0.237796)
(0.230495 -0.000456719 -0 0.24326 -0 0.236801)
(0.229663 -0.00102995 -0 0.242139 -0 0.235831)
(0.228867 -0.00146061 -0 0.241023 -0 0.234891)
(0.228264 -0.00172979 -0 0.23982 -0 0.233985)
(0.227941 -0.00175024 -0 0.238371 -0 0.233114)
(0.228159 -0.00234833 -0 0.236426 -0 0.232286)
(0.242653 -0.0109858 -0 0.254511 -0 0.248595)
(0.237339 -0.00341266 -0 0.258383 -0 0.247262)
(0.234606 0.00108349 -0 0.256845 -0 0.246059)
(0.234423 0.0030635 -0 0.25511 -0 0.24495)
(0.234013 0.00402736 -0 0.253774 -0 0.243901)
(0.233336 0.00462263 -0 0.252348 -0 0.242887)
(0.232848 0.00498062 -0 0.250901 -0 0.241895)
(0.23228 0.00496512 -0 0.249527 -0 0.240915)
(0.231622 0.0048113 -0 0.248237 -0 0.239947)
(0.230928 0.00463564 -0 0.247022 -0 0.23899)
(0.230197 0.00429946 -0 0.245873 -0 0.238047)
(0.229423 0.00405673 -0 0.244785 -0 0.237121)
(0.228684 0.00384914 -0 0.243739 -0 0.236214)
(0.227897 0.00368349 -0 0.24271 -0 0.23533)
(0.227235 0.00365625 -0 0.241648 -0 0.234471)
(0.226863 0.00375117 -0 0.240471 -0 0.233637)
(0.22655 0.0038616 -0 0.239071 -0 0.232832)
(0.226688 0.00352156 -0 0.237336 -0 0.232063)
(0.243322 -0.00981632 -0 0.253583 -0 0.248557)
(0.238378 -0.00337746 -0 0.256628 -0 0.247143)
(0.235361 0.000479323 -0 0.255946 -0 0.245833)
(0.234468 0.00263899 -0 0.25457 -0 0.244614)
(0.233691 0.00377089 -0 0.253329 -0 0.243471)
(0.232838 0.00469528 -0 0.252014 -0 0.24239)
(0.232068 0.00524665 -0 0.250677 -0 0.241356)
(0.231306 0.00550891 -0 0.249408 -0 0.240361)
(0.230608 0.00563267 -0 0.24822 -0 0.239397)
(0.229819 0.00572558 -0 0.247104 -0 0.238463)
(0.229007 0.00572164 -0 0.246047 -0 0.237555)
(0.228315 0.00572297 -0 0.245039 -0 0.236673)
(0.227588 0.00582738 -0 0.244059 -0 0.235816)
(0.226907 0.00587855 -0 0.243077 -0 0.234985)
(0.226357 0.006061 -0 0.242048 -0 0.234179)
(0.225951 0.00625876 -0 0.240907 -0 0.233399)
(0.2256 0.00644181 -0 0.239588 -0 0.232645)
(0.225814 0.00627985 -0 0.238049 -0 0.231925)
(0.244073 -0.00868444 -0 0.252799 -0 0.248544)
(0.239504 -0.00324392 -0 0.255208 -0 0.247096)
(0.236292 -3.62725e-05 -0 0.254923 -0 0.245735)
(0.234941 0.00203501 -0 0.253821 -0 0.244457)
(0.233859 0.00324762 -0 0.252705 -0 0.243255)
(0.232745 0.00425287 -0 0.251514 -0 0.242119)
(0.231781 0.00492677 -0 0.250291 -0 0.241043)
(0.230892 0.00543599 -0 0.249117 -0 0.240019)
(0.23008 0.00580818 -0 0.248009 -0 0.239041)
(0.229258 0.00601878 -0 0.246962 -0 0.238103)
(0.228422 0.00627942 -0 0.245967 -0 0.237204)
(0.227721 0.00653903 -0 0.24501 -0 0.236339)
(0.226991 0.00674542 -0 0.244071 -0 0.235506)
(0.226226 0.00703363 -0 0.243121 -0 0.234704)
(0.225693 0.00726706 -0 0.242123 -0 0.233931)
(0.225403 0.00758155 -0 0.241029 -0 0.233187)
(0.225085 0.00780023 -0 0.239805 -0 0.23247)
(0.225242 0.00779929 -0 0.238452 -0 0.231788)
(0.244721 -0.00754757 -0 0.252159 -0 0.248538)
(0.24061 -0.00309348 -0 0.253978 -0 0.247079)
(0.237413 -0.000499978 -0 0.253894 -0 0.245699)
(0.235592 0.0013204 -0 0.25303 -0 0.244394)
(0.234254 0.00253576 -0 0.252048 -0 0.24316)
(0.233051 0.00351388 -0 0.250975 -0 0.241993)
(0.231926 0.00433003 -0 0.249854 -0 0.240887)
(0.230941 0.00494113 -0 0.248755 -0 0.239837)
(0.229953 0.00544106 -0 0.247703 -0 0.238839)
(0.229034 0.00577975 -0 0.246699 -0 0.237889)
(0.228254 0.00616837 -0 0.245734 -0 0.236983)
(0.227457 0.00649735 -0 0.2448 -0 0.236117)
(0.22672 0.00682136 -0 0.243875 -0 0.235289)
(0.226037 0.00716294 -0 0.242939 -0 0.234497)
(0.22551 0.00756559 -0 0.241961 -0 0.233739)
(0.225138 0.00790703 -0 0.240914 -0 0.233011)
(0.224737 0.00814424 -0 0.239781 -0 0.232314)
(0.224924 0.00815136 -0 0.238587 -0 0.231654)
(0.245373 -0.00646937 -0 0.251587 -0 0.248535)
(0.241614 -0.00282247 -0 0.252876 -0 0.247071)
(0.238385 -0.000873111 -0 0.252887 -0 0.245684)
(0.236354 0.000679563 -0 0.252219 -0 0.244369)
(0.234842 0.00187186 -0 0.251359 -0 0.243123)
(0.233519 0.00279236 -0 0.250391 -0 0.241941)
(0.232325 0.00358403 -0 0.24936 -0 0.240819)
(0.231197 0.00420268 -0 0.248327 -0 0.239754)
(0.23013 0.00466894 -0 0.247318 -0 0.238741)
(0.229203 0.00515404 -0 0.24634 -0 0.237779)
(0.228337 0.0055753 -0 0.245391 -0 0.236863)
(0.227537 0.00598149 -0 0.244461 -0 0.235991)
(0.226794 0.00634618 -0 0.243537 -0 0.235159)
(0.226115 0.00675086 -0 0.242603 -0 0.234365)
(0.225588 0.00711206 -0 0.241639 -0 0.233607)
(0.225128 0.00745201 -0 0.240634 -0 0.232884)
(0.224631 0.00775282 -0 0.239581 -0 0.232193)
(0.224725 0.00781348 -0 0.238511 -0 0.23154)
(0.245863 -0.00536464 -0 0.251082 -0 0.248533)
(0.242508 -0.00256696 -0 0.251925 -0 0.247067)
(0.239369 -0.00109279 -0 0.251945 -0 0.245677)
(0.237191 0.000216658 -0 0.251413 -0 0.244359)
(0.235521 0.0012929 -0 0.250656 -0 0.243107)
(0.234087 0.00210689 -0 0.249778 -0 0.241919)
(0.232773 0.00280735 -0 0.248829 -0 0.24079)
(0.231513 0.00340473 -0 0.247854 -0 0.239718)
(0.230455 0.00391297 -0 0.246884 -0 0.238698)
(0.22953 0.00440111 -0 0.245927 -0 0.237728)
(0.228674 0.00478344 -0 0.244987 -0 0.236805)
(0.227792 0.00520366 -0 0.244057 -0 0.235926)
(0.227061 0.0055625 -0 0.243131 -0 0.235089)
(0.226382 0.00596988 -0 0.242198 -0 0.234291)
(0.225775 0.00627198 -0 0.24125 -0 0.23353)
(0.225417 0.00660554 -0 0.240281 -0 0.232804)
(0.224827 0.0068632 -0 0.239294 -0 0.232112)
(0.224721 0.0069664 -0 0.238316 -0 0.23146)
(0.246296 -0.00427236 -0 0.250655 -0 0.248531)
(0.243182 -0.00214764 -0 0.251134 -0 0.247065)
(0.240238 -0.00109299 -0 0.251094 -0 0.245673)
(0.238035 -5.99167e-05 -0 0.250637 -0 0.244352)
(0.236204 0.000787191 -0 0.24996 -0 0.243099)
(0.234603 0.00151565 -0 0.249157 -0 0.241908)
(0.233307 0.0021235 -0 0.248274 -0 0.240776)
(0.232066 0.0026541 -0 0.247353 -0 0.239701)
(0.230952 0.00318683 -0 0.246418 -0 0.238677)
(0.22989 0.00358393 -0 0.245483 -0 0.237703)
(0.228966 0.00399397 -0 0.244554 -0 0.236777)
(0.228179 0.00432147 -0 0.243629 -0 0.235894)
(0.227458 0.00468019 -0 0.242706 -0 0.235053)
(0.226703 0.00498781 -0 0.241781 -0 0.234251)
(0.226106 0.00531833 -0 0.240851 -0 0.233487)
(0.22566 0.00556171 -0 0.239917 -0 0.232759)
(0.224978 0.00573463 -0 0.238984 -0 0.232064)
(0.224897 0.00585913 -0 0.238074 -0 0.23141)
(0.246677 -0.00324516 -0 0.250309 -0 0.248531)
(0.243798 -0.00166295 -0 0.250497 -0 0.247063)
(0.240995 -0.000945502 -0 0.250364 -0 0.24567)
(0.238695 -0.000180465 -0 0.249931 -0 0.244348)
(0.236833 0.000439068 -0 0.249303 -0 0.243093)
(0.235251 0.0010876 -0 0.248554 -0 0.241901)
(0.233776 0.00157042 -0 0.247724 -0 0.240767)
(0.232556 0.00201848 -0 0.246846 -0 0.23969)
(0.231382 0.00244682 -0 0.245943 -0 0.238665)
(0.230343 0.00278532 -0 0.245031 -0 0.237689)
(0.22943 0.00314914 -0 0.244115 -0 0.23676)
(0.228496 0.00346052 -0 0.243201 -0 0.235875)
(0.227786 0.003761 -0 0.242288 -0 0.235032)
(0.227136 0.00398988 -0 0.241379 -0 0.234229)
(0.226456 0.00427165 -0 0.240472 -0 0.233462)
(0.22583 0.00446793 -0 0.239572 -0 0.232731)
(0.225259 0.00464028 -0 0.238684 -0 0.232035)
(0.225202 0.004751 -0 0.237825 -0 0.231379)
(0.246949 -0.00221387 -0 0.250044 -0 0.24853)
(0.244247 -0.0011664 -0 0.250007 -0 0.247061)
(0.241575 -0.000710011 -0 0.249772 -0 0.245667)
(0.239299 -0.000207802 -0 0.249326 -0 0.244345)
(0.237461 0.000279824 -0 0.248721 -0 0.243089)
(0.23577 0.000719862 -0 0.248003 -0 0.241895)
(0.234252 0.00110522 -0 0.247208 -0 0.240761)
(0.233047 0.00147669 -0 0.246362 -0 0.239683)
(0.23182 0.00177591 -0 0.245486 -0 0.238656)
(0.230719 0.00208752 -0 0.244593 -0 0.237679)
(0.229823 0.00235731 -0 0.243693 -0 0.236749)
(0.228987 0.00259527 -0 0.242793 -0 0.235863)
(0.228118 0.00284929 -0 0.241897 -0 0.235018)
(0.227395 0.00305872 -0 0.241006 -0 0.234213)
(0.226818 0.00323572 -0 0.240126 -0 0.233445)
(0.226206 0.00340042 -0 0.239259 -0 0.232713)
(0.225545 0.00354635 -0 0.23841 -0 0.232015)
(0.225286 0.00360841 -0 0.237594 -0 0.231358)
(0.247113 -0.00114297 -0 0.249864 -0 0.248529)
(0.244582 -0.000606026 -0 0.249674 -0 0.24706)
(0.241984 -0.000358042 -0 0.249352 -0 0.245666)
(0.239782 -6.84088e-05 -0 0.248877 -0 0.244343)
(0.237899 0.000219686 -0 0.248268 -0 0.243086)
(0.236228 0.000475315 -0 0.24756 -0 0.241892)
(0.234725 0.000749777 -0 0.246778 -0 0.240757)
(0.233397 0.000967098 -0 0.245948 -0 0.239677)
(0.232187 0.00117531 -0 0.245085 -0 0.23865)
(0.231176 0.00140268 -0 0.244205 -0 0.237672)
(0.230134 0.00159965 -0 0.243318 -0 0.236741)
(0.229231 0.00178622 -0 0.242431 -0 0.235853)
(0.228547 0.00194418 -0 0.24155 -0 0.235008)
(0.227745 0.00212091 -0 0.240678 -0 0.234202)
(0.226996 0.00223817 -0 0.239821 -0 0.233433)
(0.226391 0.00234676 -0 0.238982 -0 0.2327)
(0.225737 0.00246527 -0 0.238164 -0 0.232001)
(0.225505 0.00249013 -0 0.237381 -0 0.231343)
(0.24722 -8.32954e-05 -0 0.24978 -0 0.248529)
(0.244696 -2.59633e-05 -0 0.249519 -0 0.24706)
(0.242217 5.30647e-05 -0 0.249154 -0 0.245666)
(0.240025 0.000112481 -0 0.248652 -0 0.244342)
(0.238152 0.000202257 -0 0.248028 -0 0.243085)
(0.23649 0.000297586 -0 0.247309 -0 0.241891)
(0.234928 0.00039759 -0 0.24652 -0 0.240755)
(0.23361 0.000527224 -0 0.245685 -0 0.239675)
(0.232481 0.000632294 -0 0.24482 -0 0.238647)
(0.231403 0.000763274 -0 0.24394 -0 0.237669)
(0.230456 0.000869932 -0 0.243054 -0 0.236737)
(0.229558 0.000997835 -0 0.242171 -0 0.235849)
(0.228716 0.00110061 -0 0.241298 -0 0.235003)
(0.227921 0.00117486 -0 0.240438 -0 0.234196)
(0.227178 0.00129524 -0 0.239596 -0 0.233427)
(0.226681 0.00138541 -0 0.238774 -0 0.232693)
(0.22593 0.00143968 -0 0.237977 -0 0.231993)
(0.225496 0.00148304 -2.3341e-20 0.237216 -0 0.231335)
(0.24722 0.00084567 -0 0.249784 -0 0.248529)
(0.244696 0.000535655 -0 0.249538 -0 0.24706)
(0.242157 0.000425738 -0 0.249183 -0 0.245666)
(0.239966 0.000283312 -0 0.248671 -0 0.244343)
(0.238152 0.000206055 -0 0.248022 -0 0.243085)
(0.23649 0.000118859 -0 0.247276 -0 0.241891)
(0.235068 0.000104845 -0 0.246461 -0 0.240755)
(0.23375 9.80925e-05 -0 0.245602 -0 0.239675)
(0.232557 0.000136604 -0 0.244716 -0 0.238647)
(0.231557 0.000152061 -0 0.243819 -0 0.237668)
(0.230534 0.000201588 -0 0.24292 -0 0.236736)
(0.229643 0.000257841 -0 0.24203 -0 0.235848)
(0.228801 0.000312884 -0 0.241152 -0 0.235002)
(0.228106 0.000371461 -0 0.240292 -0 0.234195)
(0.227459 0.000451397 -0 0.239452 -0 0.233425)
(0.226676 0.000504269 -0 0.238637 -0 0.232691)
(0.226038 0.000529106 -0 0.237848 -0 0.231992)
(0.225705 0.000569381 2.60735e-20 0.237097 -0 0.231333)
(0.247113 0.00175385 -0 0.249849 -0 0.248529)
(0.244582 0.00104208 -0 0.249704 -0 0.247061)
(0.241925 0.000746647 -0 0.24941 -0 0.245667)
(0.239786 0.000430195 -0 0.248893 -0 0.244343)
(0.237962 0.000135906 -0 0.248207 -0 0.243087)
(0.236363 -8.70424e-05 -0 0.247419 -0 0.241893)
(0.23493 -0.000223808 -0 0.246563 -0 0.240757)
(0.233686 -0.000329729 -0 0.245666 -0 0.239677)
(0.232556 -0.000394377 -0 0.244747 -0 0.238649)
(0.231485 -0.000436478 -0 0.243824 -0 0.237671)
(0.23062 -0.000438821 -0 0.242905 -0 0.236739)
(0.22973 -0.000436453 -0 0.242 -0 0.235852)
(0.228895 -0.000393327 -0 0.241112 -0 0.235006)
(0.228199 -0.000350039 -0 0.240246 -0 0.234199)
(0.227465 -0.00033285 -0 0.239404 -0 0.233431)
(0.226782 -0.000314993 -0 0.238589 -0 0.232697)
(0.226144 -0.000240534 -0 0.237803 -0 0.231997)
(0.225711 -0.000251997 1.44808e-20 0.237058 -0 0.231339)
(0.247004 0.00265995 -0 0.249942 -0 0.24853)
(0.244302 0.00155696 -0 0.250001 -0 0.247061)
(0.241576 0.00102685 -0 0.249816 -0 0.245668)
(0.239362 0.000465851 -0 0.249272 -0 0.244346)
(0.237589 -3.32676e-05 -0 0.24852 -0 0.24309)
(0.236104 -0.000336575 -0 0.247666 -0 0.241897)
(0.234801 -0.000632549 -0 0.246747 -0 0.240763)
(0.233547 -0.000794529 -0 0.245792 -0 0.239684)
(0.23242 -0.000919388 -0 0.244824 -0 0.238658)
(0.231496 -0.00099379 -0 0.243861 -0 0.237682)
(0.230551 -0.00101625 -0 0.242911 -0 0.236752)
(0.229748 -0.00105872 -0 0.241979 -0 0.235866)
(0.228997 -0.00106481 -0 0.241071 -0 0.235022)
(0.228218 -0.0010607 -0 0.240189 -0 0.234217)
(0.227485 -0.00101656 -0 0.239335 -0 0.233449)
(0.226905 -0.00100478 -0 0.238511 -0 0.232717)
(0.226269 -0.000961487 -0 0.23772 -0 0.232019)
(0.225736 -0.000935293 -1.61071e-20 0.236972 -0 0.231362)
(0.246895 0.00356858 -0 0.250011 -0 0.248531)
(0.243908 0.00211448 -0 0.250447 -0 0.247063)
(0.240997 0.00127804 -0 0.250417 -0 0.245672)
(0.238823 0.000377353 -0 0.249819 -0 0.244353)
(0.237223 -0.000244692 -0 0.248994 -0 0.243101)
(0.23579 -0.000703023 -0 0.248072 -0 0.241912)
(0.234482 -0.00102141 -0 0.247086 -0 0.240783)
(0.233435 -0.0012975 -0 0.246072 -0 0.239711)
(0.232379 -0.00142327 -0 0.245061 -0 0.238691)
(0.231462 -0.00151596 -0 0.244065 -0 0.237721)
(0.2306 -0.00159276 -0 0.243091 -0 0.236797)
(0.229718 -0.00157519 -0 0.242139 -0 0.235916)
(0.228973 -0.00162216 -0 0.241214 -0 0.235076)
(0.228378 -0.00158549 -0 0.240316 -0 0.234275)
(0.227649 -0.00154675 -0 0.239445 -0 0.233511)
(0.22698 -0.00149854 -0 0.238604 -0 0.23278)
(0.226452 -0.00144816 -0 0.237797 -0 0.232083)
(0.226048 -0.00141801 -0 0.237038 -0 0.231426)
(0.246839 0.00452968 -0 0.24998 -0 0.248533)
(0.243408 0.00285715 -0 0.251077 -0 0.247071)
(0.240255 0.00155506 -0 0.251074 -0 0.245689)
(0.238191 0.000291065 -0 0.250265 -0 0.244383)
(0.236767 -0.000447363 -0 0.249327 -0 0.243148)
(0.235536 -0.000976304 -0 0.248312 -0 0.241979)
(0.234369 -0.00136194 -0 0.247215 -0 0.240869)
(0.23334 -0.00159032 -0 0.246101 -0 0.239816)
(0.232445 -0.00172974 -0 0.245008 -0 0.238813)
(0.231542 -0.00179697 -0 0.24395 -0 0.237857)
(0.230778 -0.00183766 -0 0.242928 -0 0.236945)
(0.229989 -0.00182791 -0 0.241941 -0 0.236071)
(0.229261 -0.00175739 -0 0.240988 -0 0.235236)
(0.228671 -0.00172728 -0 0.240065 -0 0.234435)
(0.227954 -0.00168437 -0 0.23917 -0 0.233667)
(0.227384 -0.00155011 -0 0.238303 -0 0.232931)
(0.226756 -0.00145287 -0 0.237468 -0 0.232225)
(0.226372 -0.0013118 1.95405e-20 0.236678 -0 0.231555)
(0.247011 0.00557629 -0 0.24978 -0 0.248544)
(0.242881 0.00379924 -0 0.252737 -0 0.247112)
(0.239359 0.00172947 -0 0.252699 -0 0.245777)
(0.237627 0.00027189 -0 0.251512 -0 0.244529)
(0.236622 -0.000493129 -0 0.250504 -0 0.243356)
(0.235509 -0.00100873 -0 0.24951 -0 0.242245)
(0.234536 -0.00139119 -0 0.24843 -0 0.241185)
(0.233761 -0.00155248 -0 0.247315 -0 0.24017)
(0.232908 -0.00160135 -0 0.246192 -0 0.239192)
(0.232112 -0.00156427 -0 0.24507 -0 0.238247)
(0.231363 -0.00146132 -0 0.243957 -0 0.237333)
(0.230668 -0.00133891 -0 0.24286 -0 0.236448)
(0.229933 -0.00116944 -0 0.241781 -0 0.235589)
(0.229249 -0.000983649 -0 0.240724 -0 0.234758)
(0.228694 -0.000798485 -0 0.239688 -0 0.233952)
(0.228099 -0.000565171 -0 0.238675 -0 0.233173)
(0.22755 -0.000368372 -0 0.23769 -0 0.232419)
(0.227143 -8.50665e-05 -2.09679e-20 0.236757 -0 0.2317)
(0.247529 0.00739734 -0 0.246471 -0 0.248615)
(0.242416 0.00573118 -0 0.252972 -0 0.247335)
(0.238778 0.00223329 -0 0.252974 -0 0.246189)
(0.23777 0.000642372 -0 0.250911 -0 0.245125)
(0.237184 0.000172487 -0 0.249019 -0 0.244102)
(0.236406 -0.000201138 -0 0.247303 -0 0.243095)
(0.235661 -0.000365259 -0 0.245807 -0 0.242091)
(0.235005 -0.000386099 -0 0.244537 -0 0.241085)
(0.234305 -0.000246921 -0 0.243416 -0 0.240079)
(0.23356 -2.9169e-05 -0 0.24237 -0 0.239073)
(0.232842 0.000311221 -0 0.241362 -0 0.238075)
(0.232078 0.000655816 -0 0.240371 -0 0.237089)
(0.231348 0.00101035 -0 0.239384 -0 0.236117)
(0.230652 0.00150479 -0 0.238397 -0 0.235165)
(0.229916 0.00190241 -0 0.237407 -0 0.234235)
(0.229218 0.00235048 -0 0.23641 -0 0.23333)
(0.228565 0.00285463 -0 0.235409 -0 0.232453)
(0.228093 0.0033922 -1.07281e-20 0.234414 -0 0.231614)
(0.249704 0.0094647 -0 0.24415 -0 0.249027)
(0.242708 0.00983987 -0 0.256357 -0 0.248375)
(0.2393 0.00367042 -0 0.26215 -0 0.247785)
(0.239844 0.0014125 -0 0.265196 -0 0.247091)
(0.239919 0.00126166 -0 0.265147 -0 0.246239)
(0.239297 0.00145841 -0 0.262874 -0 0.245235)
(0.238621 0.0020014 -0 0.259764 -0 0.244109)
(0.237927 0.00273661 -0 0.256523 -0 0.242897)
(0.237063 0.0035538 -0 0.253396 -0 0.24163)
(0.236188 0.00443866 -0 0.250475 -0 0.240338)
(0.23525 0.00532802 -0 0.247784 -0 0.239042)
(0.234211 0.00619189 -0 0.245318 -0 0.237757)
(0.233337 0.00711902 -0 0.243059 -0 0.236499)
(0.232371 0.00801333 -0 0.240982 -0 0.235273)
(0.231394 0.00888816 -0 0.239061 -0 0.234089)
(0.23061 0.00978374 -0 0.237263 -0 0.232948)
(0.229819 0.0106593 -0 0.235562 -0 0.231857)
(0.229152 0.0116147 1.01839e-20 0.233926 -0 0.230824)
(0.256417 0.0155695 -0 0.240281 -0 0.251203)
(0.246399 0.0184187 -0 0.206045 -0 0.252545)
(0.243576 0.0114645 -0 0.193367 -0 0.252918)
(0.245922 0.00829363 -0 0.200591 -0 0.252323)
(0.246379 0.00691677 -0 0.210525 -0 0.251046)
(0.245477 0.0068753 -0 0.218333 -0 0.24935)
(0.244263 0.00787777 -0 0.223876 -0 0.247425)
(0.242834 0.00953137 -0 0.227551 -0 0.245399)
(0.241286 0.0114005 -0 0.229771 -0 0.243355)
(0.23968 0.0134643 -0 0.230919 -0 0.241348)
(0.238053 0.015501 -0 0.23131 -0 0.239411)
(0.236524 0.0175414 -0 0.231182 -0 0.237567)
(0.235105 0.0195458 -0 0.230706 -0 0.235828)
(0.233709 0.021457 -0 0.230006 -0 0.234199)
(0.232436 0.0233492 -0 0.229164 -0 0.232684)
(0.231282 0.0251449 -0 0.228229 -0 0.23128)
(0.230252 0.0268415 -0 0.22722 -0 0.229986)
(0.229405 0.0287144 -0 0.226099 -0 0.228807)
(0.275804 -0.0152429 -0 0.646013 -0 0.262377)
(0.263171 -0.0104247 -0 0.560522 -0 0.267469)
(0.259467 0.00426519 -0 0.456011 -0 0.266533)
(0.258886 0.0161639 -0 0.387244 -0 0.263135)
(0.256473 0.0226194 -0 0.341804 -0 0.25889)
(0.253294 0.0271951 -0 0.310815 -0 0.254507)
(0.250085 0.0313003 -0 0.289134 -0 0.250305)
(0.24694 0.0351872 -0 0.273514 -0 0.246422)
(0.243967 0.0388965 -0 0.261934 -0 0.242911)
(0.241272 0.0424511 -0 0.253138 -0 0.239783)
(0.238822 0.0458779 -0 0.246324 -0 0.237033)
(0.236687 0.0491952 -0 0.240968 -0 0.234641)
(0.234877 0.0523566 -0 0.236711 -0 0.232586)
(0.233337 0.0553746 -0 0.233306 -0 0.230842)
(0.232056 0.0582626 -0 0.230575 -0 0.229383)
(0.231024 0.0609813 -0 0.228381 -0 0.228185)
(0.230336 0.0635227 -0 0.2266 -0 0.22722)
(0.229762 0.0661113 -0 0.225005 -0 0.226473)
(0.288836 0.0754429 -0 -0.37649 -0 0.292543)
(0.291333 0.00103113 -0 -0.00604196 -0 0.28894)
(0.28151 0.0193004 -0 0.121011 -0 0.277529)
(0.269949 0.0415716 -0 0.173494 -0 0.265813)
(0.259243 0.0590632 -0 0.19674 -0 0.255555)
(0.250703 0.0732889 -0 0.207339 -0 0.247072)
(0.244083 0.085448 -0 0.212078 -0 0.240288)
(0.239 0.0960894 -0 0.21407 -0 0.235021)
(0.235216 0.105618 -0 0.214854 -0 0.231073)
(0.232557 0.114278 -0 0.215214 -0 0.228262)
(0.230865 0.122267 -0 0.215549 -0 0.226425)
(0.229997 0.129724 -0 0.216059 -0 0.22542)
(0.229826 0.136711 -0 0.216831 -0 0.225123)
(0.230246 0.143289 -0 0.217898 -0 0.225426)
(0.231161 0.149497 -0 0.21926 -0 0.226235)
(0.232478 0.155355 -0 0.220898 -0 0.227465)
(0.234218 0.160828 -0 0.222777 -0 0.229041)
(0.236074 0.166185 -0 0.224857 -0 0.230918)
(0.226504 0.638352 -0 0.267922 -0 0.225038)
(0.204912 0.62417 -0 0.220392 -0 0.2034)
(0.189068 0.591289 -0 0.193442 -0 0.185635)
(0.174587 0.562759 -0 0.174094 -0 0.170863)
(0.162023 0.538184 -0 0.159263 -0 0.158488)
(0.15141 0.516895 -0 0.147525 -0 0.148072)
(0.142441 0.498357 -0 0.137997 -0 0.139277)
(0.134833 0.482182 -0 0.130139 -0 0.131835)
(0.128372 0.468064 -0 0.123599 -0 0.125529)
(0.122882 0.455737 -0 0.118127 -0 0.12018)
(0.118222 0.444994 -0 0.113537 -0 0.115646)
(0.114269 0.435636 -0 0.109682 -0 0.111807)
(0.110922 0.427492 -0 0.106448 -0 0.108562)
(0.108096 0.420422 -0 0.10374 -0 0.105829)
(0.105719 0.4143 -0 0.101483 -0 0.103537)
(0.103726 0.409017 -0 0.0996144 -0 0.101626)
(0.102095 0.404476 -0 0.098085 -0 0.100045)
(0.100625 0.400558 -0 0.096874 -0 0.0987513)
(0.00128873 6.76627e-05 -0 0.00150153 -0 0.00139701)
(0.00212722 -7.24636e-05 -0 0.00267246 -0 0.00238668)
(0.00290509 -0.000171014 -1.64925e-24 0.00330312 -1.74727e-21 0.00310742)
(0.00359292 -0.00019669 -0 0.00369768 -0 0.00365707)
(0.00431078 -0.000166176 1.30075e-24 0.00406429 1.37805e-21 0.00419842)
(0.00506591 -8.4535e-05 4.15712e-21 0.00447188 1.32991e-21 0.00478397)
(0.0058584 4.4294e-05 -4.37628e-21 0.00492801 2.81593e-21 0.00541272)
(0.00674829 0.000224366 -4.69583e-21 0.00548718 -1.66595e-21 0.00613823)
(0.00771045 0.000456171 1.09741e-21 0.00615188 -0 0.00695753)
(0.00871098 0.000725901 -1.24928e-23 0.00688067 -1.41709e-21 0.00782787)
(0.00978229 0.00103543 4.2932e-21 0.0076815 -0 0.00876493)
(0.0109135 0.00139051 -0 0.00854959 -0 0.0097664)
(0.0121012 0.00179387 2.84196e-21 0.00947973 -1.22622e-21 0.010827)
(0.01334 0.00224637 -2.84409e-23 0.0104681 9.55031e-22 0.0119422)
(0.0146258 0.0027479 -3.1011e-21 0.0115121 1.18839e-21 0.0131085)
(0.0159555 0.0032982 -2.38761e-21 0.0126099 1.16986e-21 0.0143235)
(0.0173269 0.00389668 6.63701e-23 0.0137601 -7.62914e-22 0.0155855)
(0.0187392 0.00454287 2.57243e-21 0.014962 -0 0.0168936)
(0.020192 0.00523626 -0 0.0162151 -0 0.0182475)
(0.0216853 0.00597628 1.99368e-21 0.0175193 -0 0.0196472)
(0.0232203 0.00676254 -1.2571e-22 0.0188746 1.6982e-21 0.0210932)
(0.0247979 0.00759472 -2.67426e-22 0.0202818 -0 0.0225864)
(0.02642 0.00847265 -1.61877e-22 0.0217416 -5.07228e-22 0.0241281)
(0.0280887 0.00939621 -1.95992e-21 0.0232554 -0 0.0257201)
(0.0298066 0.0103656 1.6859e-21 0.0248249 -0 0.0273645)
(0.031577 0.0113812 -2.16702e-22 0.0264527 4.99546e-22 0.0290642)
(0.033404 0.0124437 -3.37209e-21 0.0281417 -0 0.0308228)
(0.0352923 0.013554 2.56943e-22 0.0298961 -4.70412e-22 0.0326448)
(0.0372482 0.0147133 3.2022e-21 0.0317212 1.01427e-21 0.0345358)
(0.0392794 0.0159237 -2.99654e-22 0.0336237 4.46729e-22 0.0365031)
(0.0413952 0.0171874 -1.59676e-21 0.0356125 -0 0.0385559)
(0.0436083 0.0185078 -0 0.037699 -0 0.0407061)
(0.0459344 0.0198889 -0 0.039898 -0 0.0429689)
(0.0483938 0.0213363 9.4583e-25 0.0422286 1.00203e-21 0.0453641)
(0.0510126 0.0228569 -1.36824e-21 0.044716 1.00349e-21 0.0479173)
(0.0538252 0.0244601 4.45825e-22 0.0473927 -3.99091e-22 0.050662)
(0.0568764 0.0261574 4.11185e-21 0.0503016 -0 0.0536419)
(0.0602248 0.0279643 -1.00672e-21 0.0534989 7.79477e-22 0.0569145)
(0.0639479 0.0299007 -5.45375e-21 0.0570587 -0 0.0605555)
(0.0681482 0.0319922 1.13688e-21 0.0610792 -7.67905e-22 0.0646657)
(0.0729631 0.0342725 2.7967e-21 0.0656917 -0 0.0693793)
(0.0785771 0.0367841 2.62901e-21 0.071072 -0 0.0748767)
(0.085242 0.0395834 -1.37909e-21 0.0774587 7.68759e-22 0.0814027)
(0.0932996 0.0427421 -1.7027e-22 0.0851778 -0 0.0892933)
(0.103226 0.0463798 -4.32376e-21 0.0946819 -1.5428e-21 0.0990173)
(0.107812 0.0488562 -1.18968e-21 0.0990912 -7.85016e-22 0.10352)
(0.112219 0.0513329 1.47343e-22 0.103359 -0 0.107857)
(0.116716 0.0538614 -8.36332e-22 0.10772 -7.77872e-22 0.112289)
(0.121325 0.0564597 4.64477e-21 0.112191 -7.74982e-22 0.11683)
(0.126046 0.0591289 2.73037e-21 0.116774 -0 0.121483)
(0.13088 0.0618694 -0 0.121471 -0 0.12625)
(0.135828 0.0646827 -0 0.126284 -0 0.131132)
(0.140891 0.0675681 -0 0.131213 -0 0.136129)
(0.146069 0.0705266 2.50475e-21 0.136262 -0 0.141244)
(0.151363 0.0735578 -2.35037e-21 0.14143 7.63854e-22 0.146476)
(0.156772 0.076662 -5.03914e-21 0.146718 -2.33786e-21 0.151826)
(0.162295 0.0798374 2.51336e-21 0.152126 -7.61951e-22 0.157293)
(0.167935 0.0830845 2.52845e-21 0.157656 -0 0.162879)
(0.173689 0.0864026 2.40047e-21 0.163306 -2.34204e-21 0.168582)
(0.179556 0.0897907 -2.76175e-21 0.169078 3.10387e-21 0.174403)
(0.185535 0.0932469 -4.82837e-21 0.17497 -0 0.180339)
(0.191627 0.0967705 2.93435e-21 0.180982 -7.59782e-22 0.186392)
(0.197828 0.10036 2.42244e-21 0.187112 -0 0.192559)
(0.204136 0.104013 -0 0.193361 -0 0.198838)
(0.210551 0.107727 2.2948e-21 0.199725 2.35105e-21 0.205229)
(0.21707 0.1115 -3.28033e-21 0.206204 7.59728e-22 0.211728)
(0.223689 0.11533 -2.34181e-21 0.212796 2.3533e-21 0.218334)
(0.230405 0.119213 2.23785e-21 0.219498 -2.35413e-21 0.225044)
(0.237218 0.123146 -3.5414e-21 0.226308 7.60047e-22 0.231856)
(0.244123 0.127127 -8.18718e-23 0.233223 -0 0.238766)
(0.251116 0.13115 -3.7146e-21 0.240239 7.60205e-22 0.245771)
(0.258192 0.135213 -2.24963e-21 0.247355 -0 0.252867)